
     Program BANDS v.6.4.1 starts on  8Jan2025 at 21:41:34 

     This program is part of the open-source Quantum ESPRESSO suite
     for quantum simulation of materials; please cite
         "P. Giannozzi et al., J. Phys.:Condens. Matter 21 395502 (2009);
         "P. Giannozzi et al., J. Phys.:Condens. Matter 29 465901 (2017);
          URL http://www.quantum-espresso.org", 
     in publications or presentations arising from this work. More details at
     http://www.quantum-espresso.org/quote

     Parallel version (MPI), running on     1 processors

     MPI processes distributed on     1 nodes

     Reading data from directory:
     ./out/aiida.save/

     IMPORTANT: XC functional enforced from input :
     Exchange-correlation      = PBE ( 1  4  3  4 0 0)
     Any further DFT definition will be discarded
     Please, verify this is what you really want


     G-vector sticks info
     --------------------
     sticks:   dense  smooth     PW     G-vecs:    dense   smooth      PW
     Sum        2053    1027    295               251971    89225   13637

     high-symmetry point:  0.0000 0.0000 0.0000   x coordinate   0.0000
     high-symmetry point:  0.0000 0.5774 0.0000   x coordinate   0.5774
     high-symmetry point:  0.3333 0.5773 0.0000   x coordinate   0.9107
     high-symmetry point:  0.0000 0.0000 0.0000   x coordinate   1.5773

     Plottable bands (eV) written to file hhk.bands.gnu
     Bands written to file hhk.bands

 **************************************************************************

                    xk=(   0.00000,   0.00000,   0.00000  )

     point group C_s (m)    
     there are  2 classes
     the character table:

       E     s    
A'     1.00  1.00
A''    1.00 -1.00

     the symmetry operations in each class and the name of the first element:

     E        1
                                                                 
     s        2
                                                                 

     Band symmetry, C_s (m)     point group:

     e(  1 -  1) =    -14.02874  eV     1   --> A'             
     e(  2 -  2) =    -10.64837  eV     1   --> A'             
     e(  3 -  3) =     -8.87978  eV     1   --> A''            
     e(  4 -  4) =     -8.87538  eV     1   --> A'             
     e(  5 -  5) =     -5.95194  eV     1   --> A'             
     e(  6 -  6) =     -5.54018  eV     1   --> A'             
     e(  7 -  7) =     -5.53735  eV     1   --> A''            
     e(  8 -  8) =     -3.39354  eV     1   --> A'             
     e(  9 -  9) =     -1.94117  eV     1   --> A''            
     e( 10 - 10) =     -1.93783  eV     1   --> A'             
     e( 11 - 11) =     -1.13988  eV     1   --> A'             
     e( 12 - 12) =      0.91514  eV     1   --> A'             

 **************************************************************************

 **************************************************************************

                    xk=(   0.00000,   0.01925,   0.00000  )

     point group C_1 (1)    
     there are  1 classes
     the character table:

       E    
A      1.00

     the symmetry operations in each class and the name of the first element:

     E        1
                                                                 

     Band symmetry, C_1 (1)     point group:

     e(  1 -  1) =    -14.02773  eV     1   --> A              
     e(  2 -  2) =    -10.65451  eV     1   --> A              
     e(  3 -  3) =     -8.87805  eV     1   --> A              
     e(  4 -  4) =     -8.87195  eV     1   --> A              
     e(  5 -  5) =     -5.95073  eV     1   --> A              
     e(  6 -  6) =     -5.53896  eV     1   --> A              
     e(  7 -  7) =     -5.53592  eV     1   --> A              
     e(  8 -  8) =     -3.39743  eV     1   --> A              
     e(  9 -  9) =     -1.94013  eV     1   --> A              
     e( 10 - 10) =     -1.93674  eV     1   --> A              
     e( 11 - 11) =     -1.13674  eV     1   --> A              
     e( 12 - 12) =      0.91780  eV     1   --> A              

 **************************************************************************

 **************************************************************************

                    xk=(   0.00000,   0.03849,   0.00000  )

     Band symmetry, C_1 (1)     point group:

     e(  1 -  1) =    -14.02472  eV     1   --> A              
     e(  2 -  2) =    -10.67266  eV     1   --> A              
     e(  3 -  3) =     -8.88021  eV     1   --> A              
     e(  4 -  4) =     -8.85459  eV     1   --> A              
     e(  5 -  5) =     -5.94711  eV     1   --> A              
     e(  6 -  6) =     -5.53923  eV     1   --> A              
     e(  7 -  7) =     -5.52766  eV     1   --> A              
     e(  8 -  8) =     -3.40898  eV     1   --> A              
     e(  9 -  9) =     -1.94151  eV     1   --> A              
     e( 10 - 10) =     -1.92915  eV     1   --> A              
     e( 11 - 11) =     -1.12733  eV     1   --> A              
     e( 12 - 12) =      0.92564  eV     1   --> A              

 **************************************************************************

 **************************************************************************

                    xk=(   0.00000,   0.05774,   0.00000  )

     Band symmetry, C_1 (1)     point group:

     e(  1 -  1) =    -14.01970  eV     1   --> A              
     e(  2 -  2) =    -10.70200  eV     1   --> A              
     e(  3 -  3) =     -8.88455  eV     1   --> A              
     e(  4 -  4) =     -8.82578  eV     1   --> A              
     e(  5 -  5) =     -5.94119  eV     1   --> A              
     e(  6 -  6) =     -5.54026  eV     1   --> A              
     e(  7 -  7) =     -5.51321  eV     1   --> A              
     e(  8 -  8) =     -3.42778  eV     1   --> A              
     e(  9 -  9) =     -1.94471  eV     1   --> A              
     e( 10 - 10) =     -1.91591  eV     1   --> A              
     e( 11 - 11) =     -1.11171  eV     1   --> A              
     e( 12 - 12) =      0.93829  eV     1   --> A              

 **************************************************************************

 **************************************************************************

                    xk=(   0.00000,   0.07698,   0.00000  )

     Band symmetry, C_1 (1)     point group:

     e(  1 -  1) =    -14.01270  eV     1   --> A              
     e(  2 -  2) =    -10.74137  eV     1   --> A              
     e(  3 -  3) =     -8.89061  eV     1   --> A              
     e(  4 -  4) =     -8.78716  eV     1   --> A              
     e(  5 -  5) =     -5.93316  eV     1   --> A              
     e(  6 -  6) =     -5.54142  eV     1   --> A              
     e(  7 -  7) =     -5.49306  eV     1   --> A              
     e(  8 -  8) =     -3.45330  eV     1   --> A              
     e(  9 -  9) =     -1.94920  eV     1   --> A              
     e( 10 - 10) =     -1.89802  eV     1   --> A              
     e( 11 - 11) =     -1.09004  eV     1   --> A              
     e( 12 - 12) =      0.95495  eV     1   --> A              

 **************************************************************************

 **************************************************************************

                    xk=(   0.00000,   0.09623,   0.00000  )

     Band symmetry, C_1 (1)     point group:

     e(  1 -  1) =    -14.00373  eV     1   --> A              
     e(  2 -  2) =    -10.78937  eV     1   --> A              
     e(  3 -  3) =     -8.89824  eV     1   --> A              
     e(  4 -  4) =     -8.74020  eV     1   --> A              
     e(  5 -  5) =     -5.92328  eV     1   --> A              
     e(  6 -  6) =     -5.54230  eV     1   --> A              
     e(  7 -  7) =     -5.46741  eV     1   --> A              
     e(  8 -  8) =     -3.48481  eV     1   --> A              
     e(  9 -  9) =     -1.95485  eV     1   --> A              
     e( 10 - 10) =     -1.87620  eV     1   --> A              
     e( 11 - 11) =     -1.06250  eV     1   --> A              
     e( 12 - 12) =      0.97430  eV     1   --> A              

 **************************************************************************

 **************************************************************************

                    xk=(   0.00000,   0.11547,   0.00000  )

     Band symmetry, C_1 (1)     point group:

     e(  1 -  1) =    -13.99281  eV     1   --> A              
     e(  2 -  2) =    -10.84458  eV     1   --> A              
     e(  3 -  3) =     -8.90731  eV     1   --> A              
     e(  4 -  4) =     -8.68641  eV     1   --> A              
     e(  5 -  5) =     -5.91192  eV     1   --> A              
     e(  6 -  6) =     -5.54238  eV     1   --> A              
     e(  7 -  7) =     -5.43643  eV     1   --> A              
     e(  8 -  8) =     -3.52150  eV     1   --> A              
     e(  9 -  9) =     -1.96152  eV     1   --> A              
     e( 10 - 10) =     -1.85115  eV     1   --> A              
     e( 11 - 11) =     -1.02932  eV     1   --> A              
     e( 12 - 12) =      0.99403  eV     1   --> A              

 **************************************************************************

 **************************************************************************

                    xk=(   0.00000,   0.13472,   0.00000  )

     Band symmetry, C_1 (1)     point group:

     e(  1 -  1) =    -13.97998  eV     1   --> A              
     e(  2 -  2) =    -10.90565  eV     1   --> A              
     e(  3 -  3) =     -8.91766  eV     1   --> A              
     e(  4 -  4) =     -8.62726  eV     1   --> A              
     e(  5 -  5) =     -5.89957  eV     1   --> A              
     e(  6 -  6) =     -5.54107  eV     1   --> A              
     e(  7 -  7) =     -5.40038  eV     1   --> A              
     e(  8 -  8) =     -3.56253  eV     1   --> A              
     e(  9 -  9) =     -1.96908  eV     1   --> A              
     e( 10 - 10) =     -1.82361  eV     1   --> A              
     e( 11 - 11) =     -0.99091  eV     1   --> A              
     e( 12 - 12) =      1.00994  eV     1   --> A              

 **************************************************************************

 **************************************************************************

                    xk=(   0.00000,   0.15396,   0.00000  )

     Band symmetry, C_1 (1)     point group:

     e(  1 -  1) =    -13.96528  eV     1   --> A              
     e(  2 -  2) =    -10.97135  eV     1   --> A              
     e(  3 -  3) =     -8.92915  eV     1   --> A              
     e(  4 -  4) =     -8.56409  eV     1   --> A              
     e(  5 -  5) =     -5.88681  eV     1   --> A              
     e(  6 -  6) =     -5.53766  eV     1   --> A              
     e(  7 -  7) =     -5.35952  eV     1   --> A              
     e(  8 -  8) =     -3.60706  eV     1   --> A              
     e(  9 -  9) =     -1.97737  eV     1   --> A              
     e( 10 - 10) =     -1.79427  eV     1   --> A              
     e( 11 - 11) =     -0.94773  eV     1   --> A              
     e( 12 - 12) =      1.01494  eV     1   --> A              

 **************************************************************************

 **************************************************************************

                    xk=(   0.00000,   0.17321,   0.00000  )

     Band symmetry, C_1 (1)     point group:

     e(  1 -  1) =    -13.94874  eV     1   --> A              
     e(  2 -  2) =    -11.04058  eV     1   --> A              
     e(  3 -  3) =     -8.94158  eV     1   --> A              
     e(  4 -  4) =     -8.49809  eV     1   --> A              
     e(  5 -  5) =     -5.87430  eV     1   --> A              
     e(  6 -  6) =     -5.53139  eV     1   --> A              
     e(  7 -  7) =     -5.31413  eV     1   --> A              
     e(  8 -  8) =     -3.65422  eV     1   --> A              
     e(  9 -  9) =     -1.98623  eV     1   --> A              
     e( 10 - 10) =     -1.76374  eV     1   --> A              
     e( 11 - 11) =     -0.90036  eV     1   --> A              
     e( 12 - 12) =      0.99984  eV     1   --> A              

 **************************************************************************

 **************************************************************************

                    xk=(   0.00000,   0.19245,   0.00000  )

     Band symmetry, C_1 (1)     point group:

     e(  1 -  1) =    -13.93044  eV     1   --> A              
     e(  2 -  2) =    -11.11242  eV     1   --> A              
     e(  3 -  3) =     -8.95481  eV     1   --> A              
     e(  4 -  4) =     -8.43034  eV     1   --> A              
     e(  5 -  5) =     -5.86269  eV     1   --> A              
     e(  6 -  6) =     -5.52156  eV     1   --> A              
     e(  7 -  7) =     -5.26455  eV     1   --> A              
     e(  8 -  8) =     -3.70321  eV     1   --> A              
     e(  9 -  9) =     -1.99549  eV     1   --> A              
     e( 10 - 10) =     -1.73260  eV     1   --> A              
     e( 11 - 11) =     -0.84968  eV     1   --> A              
     e( 12 - 12) =      0.95852  eV     1   --> A              

 **************************************************************************

 **************************************************************************

                    xk=(   0.00000,   0.21170,   0.00000  )

     Band symmetry, C_1 (1)     point group:

     e(  1 -  1) =    -13.91043  eV     1   --> A              
     e(  2 -  2) =    -11.18604  eV     1   --> A              
     e(  3 -  3) =     -8.96863  eV     1   --> A              
     e(  4 -  4) =     -8.36175  eV     1   --> A              
     e(  5 -  5) =     -5.85254  eV     1   --> A              
     e(  6 -  6) =     -5.50759  eV     1   --> A              
     e(  7 -  7) =     -5.21113  eV     1   --> A              
     e(  8 -  8) =     -3.75321  eV     1   --> A              
     e(  9 -  9) =     -2.00495  eV     1   --> A              
     e( 10 - 10) =     -1.70135  eV     1   --> A              
     e( 11 - 11) =     -0.79674  eV     1   --> A              
     e( 12 - 12) =      0.89204  eV     1   --> A              

 **************************************************************************

 **************************************************************************

                    xk=(   0.00000,   0.23094,   0.00000  )

     Band symmetry, C_1 (1)     point group:

     e(  1 -  1) =    -13.88880  eV     1   --> A              
     e(  2 -  2) =    -11.26076  eV     1   --> A              
     e(  3 -  3) =     -8.98287  eV     1   --> A              
     e(  4 -  4) =     -8.29317  eV     1   --> A              
     e(  5 -  5) =     -5.84417  eV     1   --> A              
     e(  6 -  6) =     -5.48926  eV     1   --> A              
     e(  7 -  7) =     -5.15427  eV     1   --> A              
     e(  8 -  8) =     -3.80342  eV     1   --> A              
     e(  9 -  9) =     -2.01444  eV     1   --> A              
     e( 10 - 10) =     -1.67041  eV     1   --> A              
     e( 11 - 11) =     -0.74300  eV     1   --> A              
     e( 12 - 12) =      0.80607  eV     1   --> A              

 **************************************************************************

 **************************************************************************

                    xk=(   0.00000,   0.25019,   0.00000  )

     Band symmetry, C_1 (1)     point group:

     e(  1 -  1) =    -13.86563  eV     1   --> A              
     e(  2 -  2) =    -11.33596  eV     1   --> A              
     e(  3 -  3) =     -8.99737  eV     1   --> A              
     e(  4 -  4) =     -8.22530  eV     1   --> A              
     e(  5 -  5) =     -5.83764  eV     1   --> A              
     e(  6 -  6) =     -5.46668  eV     1   --> A              
     e(  7 -  7) =     -5.09435  eV     1   --> A              
     e(  8 -  8) =     -3.85301  eV     1   --> A              
     e(  9 -  9) =     -2.02375  eV     1   --> A              
     e( 10 - 10) =     -1.64016  eV     1   --> A              
     e( 11 - 11) =     -0.69034  eV     1   --> A              
     e( 12 - 12) =      0.70775  eV     1   --> A              

 **************************************************************************

 **************************************************************************

                    xk=(   0.00000,   0.26943,   0.00000  )

     Band symmetry, C_1 (1)     point group:

     e(  1 -  1) =    -13.84104  eV     1   --> A              
     e(  2 -  2) =    -11.41110  eV     1   --> A              
     e(  3 -  3) =     -9.01194  eV     1   --> A              
     e(  4 -  4) =     -8.15878  eV     1   --> A              
     e(  5 -  5) =     -5.83272  eV     1   --> A              
     e(  6 -  6) =     -5.44036  eV     1   --> A              
     e(  7 -  7) =     -5.03185  eV     1   --> A              
     e(  8 -  8) =     -3.90116  eV     1   --> A              
     e(  9 -  9) =     -2.03268  eV     1   --> A              
     e( 10 - 10) =     -1.61095  eV     1   --> A              
     e( 11 - 11) =     -0.64136  eV     1   --> A              
     e( 12 - 12) =      0.60430  eV     1   --> A              

 **************************************************************************

 **************************************************************************

                    xk=(   0.00000,   0.28868,   0.00000  )

     Band symmetry, C_1 (1)     point group:

     e(  1 -  1) =    -13.81516  eV     1   --> A              
     e(  2 -  2) =    -11.48568  eV     1   --> A              
     e(  3 -  3) =     -9.02642  eV     1   --> A              
     e(  4 -  4) =     -8.09417  eV     1   --> A              
     e(  5 -  5) =     -5.82900  eV     1   --> A              
     e(  6 -  6) =     -5.41115  eV     1   --> A              
     e(  7 -  7) =     -4.96723  eV     1   --> A              
     e(  8 -  8) =     -3.94698  eV     1   --> A              
     e(  9 -  9) =     -2.04104  eV     1   --> A              
     e( 10 - 10) =     -1.58312  eV     1   --> A              
     e( 11 - 11) =     -0.59964  eV     1   --> A              
     e( 12 - 12) =      0.49525  eV     1   --> A              

 **************************************************************************

 **************************************************************************

                    xk=(   0.00000,   0.30792,   0.00000  )

     Band symmetry, C_1 (1)     point group:

     e(  1 -  1) =    -13.78814  eV     1   --> A              
     e(  2 -  2) =    -11.55926  eV     1   --> A              
     e(  3 -  3) =     -9.04067  eV     1   --> A              
     e(  4 -  4) =     -8.03198  eV     1   --> A              
     e(  5 -  5) =     -5.82600  eV     1   --> A              
     e(  6 -  6) =     -5.38013  eV     1   --> A              
     e(  7 -  7) =     -4.90104  eV     1   --> A              
     e(  8 -  8) =     -3.98957  eV     1   --> A              
     e(  9 -  9) =     -2.04861  eV     1   --> A              
     e( 10 - 10) =     -1.55701  eV     1   --> A              
     e( 11 - 11) =     -0.56992  eV     1   --> A              
     e( 12 - 12) =      0.35286  eV     1   --> A              

 **************************************************************************

 **************************************************************************

                    xk=(   0.00000,   0.32717,   0.00000  )

     Band symmetry, C_1 (1)     point group:

     e(  1 -  1) =    -13.76016  eV     1   --> A              
     e(  2 -  2) =    -11.63140  eV     1   --> A              
     e(  3 -  3) =     -9.05454  eV     1   --> A              
     e(  4 -  4) =     -7.97264  eV     1   --> A              
     e(  5 -  5) =     -5.82324  eV     1   --> A              
     e(  6 -  6) =     -5.34854  eV     1   --> A              
     e(  7 -  7) =     -4.83386  eV     1   --> A              
     e(  8 -  8) =     -4.02799  eV     1   --> A              
     e(  9 -  9) =     -2.05523  eV     1   --> A              
     e( 10 - 10) =     -1.53301  eV     1   --> A              
     e( 11 - 11) =     -0.55768  eV     1   --> A              
     e( 12 - 12) =      0.21160  eV     1   --> A              

 **************************************************************************

 **************************************************************************

                    xk=(   0.00000,   0.34641,   0.00000  )

     Band symmetry, C_1 (1)     point group:

     e(  1 -  1) =    -13.73145  eV     1   --> A              
     e(  2 -  2) =    -11.70167  eV     1   --> A              
     e(  3 -  3) =     -9.06789  eV     1   --> A              
     e(  4 -  4) =     -7.91654  eV     1   --> A              
     e(  5 -  5) =     -5.82030  eV     1   --> A              
     e(  6 -  6) =     -5.31769  eV     1   --> A              
     e(  7 -  7) =     -4.76631  eV     1   --> A              
     e(  8 -  8) =     -4.06126  eV     1   --> A              
     e(  9 -  9) =     -2.06069  eV     1   --> A              
     e( 10 - 10) =     -1.51152  eV     1   --> A              
     e( 11 - 11) =     -0.56762  eV     1   --> A              
     e( 12 - 12) =      0.07316  eV     1   --> A              

 **************************************************************************

 **************************************************************************

                    xk=(   0.00000,   0.36566,   0.00000  )

     Band symmetry, C_1 (1)     point group:

     e(  1 -  1) =    -13.70226  eV     1   --> A              
     e(  2 -  2) =    -11.76961  eV     1   --> A              
     e(  3 -  3) =     -9.08061  eV     1   --> A              
     e(  4 -  4) =     -7.86401  eV     1   --> A              
     e(  5 -  5) =     -5.81684  eV     1   --> A              
     e(  6 -  6) =     -5.28895  eV     1   --> A              
     e(  7 -  7) =     -4.69907  eV     1   --> A              
     e(  8 -  8) =     -4.08848  eV     1   --> A              
     e(  9 -  9) =     -2.06482  eV     1   --> A              
     e( 10 - 10) =     -1.49310  eV     1   --> A              
     e( 11 - 11) =     -0.60090  eV     1   --> A              
     e( 12 - 12) =     -0.06140  eV     1   --> A              

 **************************************************************************

 **************************************************************************

                    xk=(   0.00000,   0.38490,   0.00000  )

     Band symmetry, C_1 (1)     point group:

     e(  1 -  1) =    -13.67290  eV     1   --> A              
     e(  2 -  2) =    -11.83479  eV     1   --> A              
     e(  3 -  3) =     -9.09258  eV     1   --> A              
     e(  4 -  4) =     -7.81533  eV     1   --> A              
     e(  5 -  5) =     -5.81264  eV     1   --> A              
     e(  6 -  6) =     -5.26354  eV     1   --> A              
     e(  7 -  7) =     -4.63292  eV     1   --> A              
     e(  8 -  8) =     -4.10889  eV     1   --> A              
     e(  9 -  9) =     -2.06748  eV     1   --> A              
     e( 10 - 10) =     -1.47836  eV     1   --> A              
     e( 11 - 11) =     -0.65354  eV     1   --> A              
     e( 12 - 12) =     -0.19107  eV     1   --> A              

 **************************************************************************

 **************************************************************************

                    xk=(   0.00000,   0.40415,   0.00000  )

     Band symmetry, C_1 (1)     point group:

     e(  1 -  1) =    -13.64373  eV     1   --> A              
     e(  2 -  2) =    -11.89670  eV     1   --> A              
     e(  3 -  3) =     -9.10371  eV     1   --> A              
     e(  4 -  4) =     -7.77077  eV     1   --> A              
     e(  5 -  5) =     -5.80759  eV     1   --> A              
     e(  6 -  6) =     -5.24249  eV     1   --> A              
     e(  7 -  7) =     -4.56868  eV     1   --> A              
     e(  8 -  8) =     -4.12202  eV     1   --> A              
     e(  9 -  9) =     -2.06858  eV     1   --> A              
     e( 10 - 10) =     -1.46809  eV     1   --> A              
     e( 11 - 11) =     -0.71818  eV     1   --> A              
     e( 12 - 12) =     -0.31481  eV     1   --> A              

 **************************************************************************

 **************************************************************************

                    xk=(   0.00000,   0.42339,   0.00000  )

     Band symmetry, C_1 (1)     point group:

     e(  1 -  1) =    -13.61517  eV     1   --> A              
     e(  2 -  2) =    -11.95481  eV     1   --> A              
     e(  3 -  3) =     -9.11390  eV     1   --> A              
     e(  4 -  4) =     -7.73050  eV     1   --> A              
     e(  5 -  5) =     -5.80167  eV     1   --> A              
     e(  6 -  6) =     -5.22648  eV     1   --> A              
     e(  7 -  7) =     -4.50726  eV     1   --> A              
     e(  8 -  8) =     -4.12784  eV     1   --> A              
     e(  9 -  9) =     -2.06804  eV     1   --> A              
     e( 10 - 10) =     -1.46314  eV     1   --> A              
     e( 11 - 11) =     -0.78696  eV     1   --> A              
     e( 12 - 12) =     -0.43150  eV     1   --> A              

 **************************************************************************

 **************************************************************************

                    xk=(   0.00000,   0.44264,   0.00000  )

     Band symmetry, C_1 (1)     point group:

     e(  1 -  1) =    -13.58771  eV     1   --> A              
     e(  2 -  2) =    -12.00853  eV     1   --> A              
     e(  3 -  3) =     -9.12307  eV     1   --> A              
     e(  4 -  4) =     -7.69470  eV     1   --> A              
     e(  5 -  5) =     -5.79500  eV     1   --> A              
     e(  6 -  6) =     -5.21565  eV     1   --> A              
     e(  7 -  7) =     -4.44960  eV     1   --> A              
     e(  8 -  8) =     -4.12687  eV     1   --> A              
     e(  9 -  9) =     -2.06591  eV     1   --> A              
     e( 10 - 10) =     -1.46431  eV     1   --> A              
     e( 11 - 11) =     -0.85320  eV     1   --> A              
     e( 12 - 12) =     -0.53996  eV     1   --> A              

 **************************************************************************

 **************************************************************************

                    xk=(   0.00000,   0.46188,   0.00000  )

     Band symmetry, C_1 (1)     point group:

     e(  1 -  1) =    -13.56193  eV     1   --> A              
     e(  2 -  2) =    -12.05723  eV     1   --> A              
     e(  3 -  3) =     -9.13116  eV     1   --> A              
     e(  4 -  4) =     -7.66351  eV     1   --> A              
     e(  5 -  5) =     -5.78784  eV     1   --> A              
     e(  6 -  6) =     -5.20968  eV     1   --> A              
     e(  7 -  7) =     -4.39673  eV     1   --> A              
     e(  8 -  8) =     -4.12024  eV     1   --> A              
     e(  9 -  9) =     -2.06234  eV     1   --> A              
     e( 10 - 10) =     -1.47205  eV     1   --> A              
     e( 11 - 11) =     -0.91198  eV     1   --> A              
     e( 12 - 12) =     -0.63889  eV     1   --> A              

 **************************************************************************

 **************************************************************************

                    xk=(   0.00000,   0.48113,   0.00000  )

     Band symmetry, C_1 (1)     point group:

     e(  1 -  1) =    -13.53843  eV     1   --> A              
     e(  2 -  2) =    -12.10022  eV     1   --> A              
     e(  3 -  3) =     -9.13810  eV     1   --> A              
     e(  4 -  4) =     -7.63699  eV     1   --> A              
     e(  5 -  5) =     -5.78051  eV     1   --> A              
     e(  6 -  6) =     -5.20772  eV     1   --> A              
     e(  7 -  7) =     -4.34967  eV     1   --> A              
     e(  8 -  8) =     -4.10957  eV     1   --> A              
     e(  9 -  9) =     -2.05761  eV     1   --> A              
     e( 10 - 10) =     -1.48585  eV     1   --> A              
     e( 11 - 11) =     -0.96024  eV     1   --> A              
     e( 12 - 12) =     -0.72679  eV     1   --> A              

 **************************************************************************

 **************************************************************************

                    xk=(   0.00000,   0.50037,   0.00000  )

     Band symmetry, C_1 (1)     point group:

     e(  1 -  1) =    -13.51789  eV     1   --> A              
     e(  2 -  2) =    -12.13677  eV     1   --> A              
     e(  3 -  3) =     -9.14384  eV     1   --> A              
     e(  4 -  4) =     -7.61522  eV     1   --> A              
     e(  5 -  5) =     -5.77346  eV     1   --> A              
     e(  6 -  6) =     -5.20864  eV     1   --> A              
     e(  7 -  7) =     -4.30942  eV     1   --> A              
     e(  8 -  8) =     -4.09684  eV     1   --> A              
     e(  9 -  9) =     -2.05221  eV     1   --> A              
     e( 10 - 10) =     -1.50390  eV     1   --> A              
     e( 11 - 11) =     -0.99694  eV     1   --> A              
     e( 12 - 12) =     -0.80207  eV     1   --> A              

 **************************************************************************

 **************************************************************************

                    xk=(   0.00000,   0.51962,   0.00000  )

     Band symmetry, C_1 (1)     point group:

     e(  1 -  1) =    -13.50100  eV     1   --> A              
     e(  2 -  2) =    -12.16616  eV     1   --> A              
     e(  3 -  3) =     -9.14835  eV     1   --> A              
     e(  4 -  4) =     -7.59826  eV     1   --> A              
     e(  5 -  5) =     -5.76720  eV     1   --> A              
     e(  6 -  6) =     -5.21115  eV     1   --> A              
     e(  7 -  7) =     -4.27697  eV     1   --> A              
     e(  8 -  8) =     -4.08415  eV     1   --> A              
     e(  9 -  9) =     -2.04680  eV     1   --> A              
     e( 10 - 10) =     -1.52319  eV     1   --> A              
     e( 11 - 11) =     -1.02281  eV     1   --> A              
     e( 12 - 12) =     -0.86309  eV     1   --> A              

 **************************************************************************

 **************************************************************************

                    xk=(   0.00000,   0.53886,   0.00000  )

     Band symmetry, C_1 (1)     point group:

     e(  1 -  1) =    -13.48839  eV     1   --> A              
     e(  2 -  2) =    -12.18772  eV     1   --> A              
     e(  3 -  3) =     -9.15159  eV     1   --> A              
     e(  4 -  4) =     -7.58613  eV     1   --> A              
     e(  5 -  5) =     -5.76227  eV     1   --> A              
     e(  6 -  6) =     -5.21400  eV     1   --> A              
     e(  7 -  7) =     -4.25313  eV     1   --> A              
     e(  8 -  8) =     -4.07346  eV     1   --> A              
     e(  9 -  9) =     -2.04213  eV     1   --> A              
     e( 10 - 10) =     -1.54023  eV     1   --> A              
     e( 11 - 11) =     -1.03951  eV     1   --> A              
     e( 12 - 12) =     -0.90821  eV     1   --> A              

 **************************************************************************

 **************************************************************************

                    xk=(   0.00000,   0.55811,   0.00000  )

     Band symmetry, C_1 (1)     point group:

     e(  1 -  1) =    -13.48058  eV     1   --> A              
     e(  2 -  2) =    -12.20090  eV     1   --> A              
     e(  3 -  3) =     -9.15355  eV     1   --> A              
     e(  4 -  4) =     -7.57885  eV     1   --> A              
     e(  5 -  5) =     -5.75909  eV     1   --> A              
     e(  6 -  6) =     -5.21617  eV     1   --> A              
     e(  7 -  7) =     -4.23855  eV     1   --> A              
     e(  8 -  8) =     -4.06635  eV     1   --> A              
     e(  9 -  9) =     -2.03895  eV     1   --> A              
     e( 10 - 10) =     -1.55184  eV     1   --> A              
     e( 11 - 11) =     -1.04871  eV     1   --> A              
     e( 12 - 12) =     -0.93593  eV     1   --> A              

 **************************************************************************

 **************************************************************************

                    xk=(   0.00000,   0.57735,   0.00000  )

     Band symmetry, C_1 (1)     point group:

     e(  1 -  1) =    -13.47794  eV     1   --> A              
     e(  2 -  2) =    -12.20534  eV     1   --> A              
     e(  3 -  3) =     -9.15420  eV     1   --> A              
     e(  4 -  4) =     -7.57642  eV     1   --> A              
     e(  5 -  5) =     -5.75799  eV     1   --> A              
     e(  6 -  6) =     -5.21697  eV     1   --> A              
     e(  7 -  7) =     -4.23365  eV     1   --> A              
     e(  8 -  8) =     -4.06386  eV     1   --> A              
     e(  9 -  9) =     -2.03782  eV     1   --> A              
     e( 10 - 10) =     -1.55595  eV     1   --> A              
     e( 11 - 11) =     -1.05164  eV     1   --> A              
     e( 12 - 12) =     -0.94532  eV     1   --> A              

 **************************************************************************

 **************************************************************************

                    xk=(   0.01111,   0.57735,   0.00000  )

     Band symmetry, C_1 (1)     point group:

     e(  1 -  1) =    -13.47766  eV     1   --> A              
     e(  2 -  2) =    -12.20574  eV     1   --> A              
     e(  3 -  3) =     -9.15501  eV     1   --> A              
     e(  4 -  4) =     -7.57452  eV     1   --> A              
     e(  5 -  5) =     -5.75919  eV     1   --> A              
     e(  6 -  6) =     -5.21634  eV     1   --> A              
     e(  7 -  7) =     -4.23366  eV     1   --> A              
     e(  8 -  8) =     -4.06430  eV     1   --> A              
     e(  9 -  9) =     -2.04150  eV     1   --> A              
     e( 10 - 10) =     -1.55206  eV     1   --> A              
     e( 11 - 11) =     -1.05159  eV     1   --> A              
     e( 12 - 12) =     -0.94387  eV     1   --> A              

 **************************************************************************

 **************************************************************************

                    xk=(   0.02222,   0.57735,   0.00000  )

     Band symmetry, C_1 (1)     point group:

     e(  1 -  1) =    -13.47685  eV     1   --> A              
     e(  2 -  2) =    -12.20696  eV     1   --> A              
     e(  3 -  3) =     -9.15740  eV     1   --> A              
     e(  4 -  4) =     -7.56885  eV     1   --> A              
     e(  5 -  5) =     -5.76278  eV     1   --> A              
     e(  6 -  6) =     -5.21444  eV     1   --> A              
     e(  7 -  7) =     -4.23372  eV     1   --> A              
     e(  8 -  8) =     -4.06563  eV     1   --> A              
     e(  9 -  9) =     -2.05219  eV     1   --> A              
     e( 10 - 10) =     -1.54080  eV     1   --> A              
     e( 11 - 11) =     -1.05139  eV     1   --> A              
     e( 12 - 12) =     -0.93970  eV     1   --> A              

 **************************************************************************

 **************************************************************************

                    xk=(   0.03333,   0.57734,   0.00000  )

     Band symmetry, C_1 (1)     point group:

     e(  1 -  1) =    -13.47549  eV     1   --> A              
     e(  2 -  2) =    -12.20898  eV     1   --> A              
     e(  3 -  3) =     -9.16132  eV     1   --> A              
     e(  4 -  4) =     -7.55947  eV     1   --> A              
     e(  5 -  5) =     -5.76874  eV     1   --> A              
     e(  6 -  6) =     -5.21126  eV     1   --> A              
     e(  7 -  7) =     -4.23386  eV     1   --> A              
     e(  8 -  8) =     -4.06782  eV     1   --> A              
     e(  9 -  9) =     -2.06892  eV     1   --> A              
     e( 10 - 10) =     -1.52312  eV     1   --> A              
     e( 11 - 11) =     -1.05083  eV     1   --> A              
     e( 12 - 12) =     -0.93297  eV     1   --> A              

 **************************************************************************

 **************************************************************************

                    xk=(   0.04444,   0.57734,   0.00000  )

     Band symmetry, C_1 (1)     point group:

     e(  1 -  1) =    -13.47360  eV     1   --> A              
     e(  2 -  2) =    -12.21179  eV     1   --> A              
     e(  3 -  3) =     -9.16669  eV     1   --> A              
     e(  4 -  4) =     -7.54649  eV     1   --> A              
     e(  5 -  5) =     -5.77706  eV     1   --> A              
     e(  6 -  6) =     -5.20680  eV     1   --> A              
     e(  7 -  7) =     -4.23416  eV     1   --> A              
     e(  8 -  8) =     -4.07082  eV     1   --> A              
     e(  9 -  9) =     -2.09049  eV     1   --> A              
     e( 10 - 10) =     -1.50026  eV     1   --> A              
     e( 11 - 11) =     -1.04965  eV     1   --> A              
     e( 12 - 12) =     -0.92394  eV     1   --> A              

 **************************************************************************

 **************************************************************************

                    xk=(   0.05555,   0.57734,   0.00000  )

     Band symmetry, C_1 (1)     point group:

     e(  1 -  1) =    -13.47118  eV     1   --> A              
     e(  2 -  2) =    -12.21537  eV     1   --> A              
     e(  3 -  3) =     -9.17339  eV     1   --> A              
     e(  4 -  4) =     -7.53005  eV     1   --> A              
     e(  5 -  5) =     -5.78768  eV     1   --> A              
     e(  6 -  6) =     -5.20103  eV     1   --> A              
     e(  7 -  7) =     -4.23470  eV     1   --> A              
     e(  8 -  8) =     -4.07456  eV     1   --> A              
     e(  9 -  9) =     -2.11569  eV     1   --> A              
     e( 10 - 10) =     -1.47347  eV     1   --> A              
     e( 11 - 11) =     -1.04757  eV     1   --> A              
     e( 12 - 12) =     -0.91287  eV     1   --> A              

 **************************************************************************

 **************************************************************************

                    xk=(   0.06666,   0.57734,   0.00000  )

     Band symmetry, C_1 (1)     point group:

     e(  1 -  1) =    -13.46825  eV     1   --> A              
     e(  2 -  2) =    -12.21972  eV     1   --> A              
     e(  3 -  3) =     -9.18127  eV     1   --> A              
     e(  4 -  4) =     -7.51031  eV     1   --> A              
     e(  5 -  5) =     -5.80057  eV     1   --> A              
     e(  6 -  6) =     -5.19393  eV     1   --> A              
     e(  7 -  7) =     -4.23561  eV     1   --> A              
     e(  8 -  8) =     -4.07896  eV     1   --> A              
     e(  9 -  9) =     -2.14346  eV     1   --> A              
     e( 10 - 10) =     -1.44382  eV     1   --> A              
     e( 11 - 11) =     -1.04435  eV     1   --> A              
     e( 12 - 12) =     -0.90001  eV     1   --> A              

 **************************************************************************

 **************************************************************************

                    xk=(   0.07777,   0.57734,   0.00000  )

     Band symmetry, C_1 (1)     point group:

     e(  1 -  1) =    -13.46482  eV     1   --> A              
     e(  2 -  2) =    -12.22479  eV     1   --> A              
     e(  3 -  3) =     -9.19019  eV     1   --> A              
     e(  4 -  4) =     -7.48745  eV     1   --> A              
     e(  5 -  5) =     -5.81566  eV     1   --> A              
     e(  6 -  6) =     -5.18550  eV     1   --> A              
     e(  7 -  7) =     -4.23704  eV     1   --> A              
     e(  8 -  8) =     -4.08389  eV     1   --> A              
     e(  9 -  9) =     -2.17296  eV     1   --> A              
     e( 10 - 10) =     -1.41224  eV     1   --> A              
     e( 11 - 11) =     -1.03974  eV     1   --> A              
     e( 12 - 12) =     -0.88554  eV     1   --> A              

 **************************************************************************

 **************************************************************************

                    xk=(   0.08888,   0.57733,   0.00000  )

     Band symmetry, C_1 (1)     point group:

     e(  1 -  1) =    -13.46092  eV     1   --> A              
     e(  2 -  2) =    -12.23057  eV     1   --> A              
     e(  3 -  3) =     -9.19997  eV     1   --> A              
     e(  4 -  4) =     -7.46171  eV     1   --> A              
     e(  5 -  5) =     -5.83288  eV     1   --> A              
     e(  6 -  6) =     -5.17571  eV     1   --> A              
     e(  7 -  7) =     -4.23917  eV     1   --> A              
     e(  8 -  8) =     -4.08922  eV     1   --> A              
     e(  9 -  9) =     -2.20354  eV     1   --> A              
     e( 10 - 10) =     -1.37948  eV     1   --> A              
     e( 11 - 11) =     -1.03359  eV     1   --> A              
     e( 12 - 12) =     -0.86963  eV     1   --> A              

 **************************************************************************

 **************************************************************************

                    xk=(   0.09999,   0.57733,   0.00000  )

     Band symmetry, C_1 (1)     point group:

     e(  1 -  1) =    -13.45655  eV     1   --> A              
     e(  2 -  2) =    -12.23702  eV     1   --> A              
     e(  3 -  3) =     -9.21044  eV     1   --> A              
     e(  4 -  4) =     -7.43327  eV     1   --> A              
     e(  5 -  5) =     -5.85216  eV     1   --> A              
     e(  6 -  6) =     -5.16456  eV     1   --> A              
     e(  7 -  7) =     -4.24222  eV     1   --> A              
     e(  8 -  8) =     -4.09477  eV     1   --> A              
     e(  9 -  9) =     -2.23469  eV     1   --> A              
     e( 10 - 10) =     -1.34614  eV     1   --> A              
     e( 11 - 11) =     -1.02571  eV     1   --> A              
     e( 12 - 12) =     -0.85239  eV     1   --> A              

 **************************************************************************

 **************************************************************************

                    xk=(   0.11110,   0.57733,   0.00000  )

     Band symmetry, C_1 (1)     point group:

     e(  1 -  1) =    -13.45175  eV     1   --> A              
     e(  2 -  2) =    -12.24410  eV     1   --> A              
     e(  3 -  3) =     -9.22144  eV     1   --> A              
     e(  4 -  4) =     -7.40238  eV     1   --> A              
     e(  5 -  5) =     -5.87340  eV     1   --> A              
     e(  6 -  6) =     -5.15204  eV     1   --> A              
     e(  7 -  7) =     -4.24639  eV     1   --> A              
     e(  8 -  8) =     -4.10036  eV     1   --> A              
     e(  9 -  9) =     -2.26599  eV     1   --> A              
     e( 10 - 10) =     -1.31276  eV     1   --> A              
     e( 11 - 11) =     -1.01598  eV     1   --> A              
     e( 12 - 12) =     -0.83390  eV     1   --> A              

 **************************************************************************

 **************************************************************************

                    xk=(   0.12221,   0.57733,   0.00000  )

     Band symmetry, C_1 (1)     point group:

     e(  1 -  1) =    -13.44654  eV     1   --> A              
     e(  2 -  2) =    -12.25175  eV     1   --> A              
     e(  3 -  3) =     -9.23279  eV     1   --> A              
     e(  4 -  4) =     -7.36926  eV     1   --> A              
     e(  5 -  5) =     -5.89651  eV     1   --> A              
     e(  6 -  6) =     -5.13816  eV     1   --> A              
     e(  7 -  7) =     -4.25191  eV     1   --> A              
     e(  8 -  8) =     -4.10581  eV     1   --> A              
     e(  9 -  9) =     -2.29713  eV     1   --> A              
     e( 10 - 10) =     -1.27984  eV     1   --> A              
     e( 11 - 11) =     -1.00425  eV     1   --> A              
     e( 12 - 12) =     -0.81418  eV     1   --> A              

 **************************************************************************

 **************************************************************************

                    xk=(   0.13332,   0.57733,   0.00000  )

     Band symmetry, C_1 (1)     point group:

     e(  1 -  1) =    -13.44095  eV     1   --> A              
     e(  2 -  2) =    -12.25994  eV     1   --> A              
     e(  3 -  3) =     -9.24434  eV     1   --> A              
     e(  4 -  4) =     -7.33412  eV     1   --> A              
     e(  5 -  5) =     -5.92139  eV     1   --> A              
     e(  6 -  6) =     -5.12291  eV     1   --> A              
     e(  7 -  7) =     -4.25895  eV     1   --> A              
     e(  8 -  8) =     -4.11095  eV     1   --> A              
     e(  9 -  9) =     -2.32783  eV     1   --> A              
     e( 10 - 10) =     -1.24779  eV     1   --> A              
     e( 11 - 11) =     -0.99042  eV     1   --> A              
     e( 12 - 12) =     -0.79326  eV     1   --> A              

 **************************************************************************

 **************************************************************************

                    xk=(   0.14443,   0.57733,   0.00000  )

     Band symmetry, C_1 (1)     point group:

     e(  1 -  1) =    -13.43503  eV     1   --> A              
     e(  2 -  2) =    -12.26860  eV     1   --> A              
     e(  3 -  3) =     -9.25593  eV     1   --> A              
     e(  4 -  4) =     -7.29719  eV     1   --> A              
     e(  5 -  5) =     -5.94794  eV     1   --> A              
     e(  6 -  6) =     -5.10632  eV     1   --> A              
     e(  7 -  7) =     -4.26766  eV     1   --> A              
     e(  8 -  8) =     -4.11565  eV     1   --> A              
     e(  9 -  9) =     -2.35787  eV     1   --> A              
     e( 10 - 10) =     -1.21701  eV     1   --> A              
     e( 11 - 11) =     -0.97441  eV     1   --> A              
     e( 12 - 12) =     -0.77115  eV     1   --> A              

 **************************************************************************

 **************************************************************************

                    xk=(   0.15554,   0.57732,   0.00000  )

     Band symmetry, C_1 (1)     point group:

     e(  1 -  1) =    -13.42881  eV     1   --> A              
     e(  2 -  2) =    -12.27766  eV     1   --> A              
     e(  3 -  3) =     -9.26743  eV     1   --> A              
     e(  4 -  4) =     -7.25868  eV     1   --> A              
     e(  5 -  5) =     -5.97605  eV     1   --> A              
     e(  6 -  6) =     -5.08840  eV     1   --> A              
     e(  7 -  7) =     -4.27812  eV     1   --> A              
     e(  8 -  8) =     -4.11983  eV     1   --> A              
     e(  9 -  9) =     -2.38707  eV     1   --> A              
     e( 10 - 10) =     -1.18782  eV     1   --> A              
     e( 11 - 11) =     -0.95617  eV     1   --> A              
     e( 12 - 12) =     -0.74782  eV     1   --> A              

 **************************************************************************

 **************************************************************************

                    xk=(   0.16665,   0.57732,   0.00000  )

     Band symmetry, C_1 (1)     point group:

     e(  1 -  1) =    -13.42234  eV     1   --> A              
     e(  2 -  2) =    -12.28706  eV     1   --> A              
     e(  3 -  3) =     -9.27871  eV     1   --> A              
     e(  4 -  4) =     -7.21880  eV     1   --> A              
     e(  5 -  5) =     -6.00563  eV     1   --> A              
     e(  6 -  6) =     -5.06921  eV     1   --> A              
     e(  7 -  7) =     -4.29031  eV     1   --> A              
     e(  8 -  8) =     -4.12350  eV     1   --> A              
     e(  9 -  9) =     -2.41526  eV     1   --> A              
     e( 10 - 10) =     -1.16049  eV     1   --> A              
     e( 11 - 11) =     -0.93573  eV     1   --> A              
     e( 12 - 12) =     -0.72329  eV     1   --> A              

 **************************************************************************

 **************************************************************************

                    xk=(   0.17776,   0.57732,   0.00000  )

     Band symmetry, C_1 (1)     point group:

     e(  1 -  1) =    -13.41568  eV     1   --> A              
     e(  2 -  2) =    -12.29671  eV     1   --> A              
     e(  3 -  3) =     -9.28966  eV     1   --> A              
     e(  4 -  4) =     -7.17774  eV     1   --> A              
     e(  5 -  5) =     -6.03656  eV     1   --> A              
     e(  6 -  6) =     -5.04878  eV     1   --> A              
     e(  7 -  7) =     -4.30418  eV     1   --> A              
     e(  8 -  8) =     -4.12670  eV     1   --> A              
     e(  9 -  9) =     -2.44229  eV     1   --> A              
     e( 10 - 10) =     -1.13518  eV     1   --> A              
     e( 11 - 11) =     -0.91319  eV     1   --> A              
     e( 12 - 12) =     -0.69759  eV     1   --> A              

 **************************************************************************

 **************************************************************************

                    xk=(   0.18887,   0.57732,   0.00000  )

     Band symmetry, C_1 (1)     point group:

     e(  1 -  1) =    -13.40888  eV     1   --> A              
     e(  2 -  2) =    -12.30653  eV     1   --> A              
     e(  3 -  3) =     -9.30018  eV     1   --> A              
     e(  4 -  4) =     -7.13569  eV     1   --> A              
     e(  5 -  5) =     -6.06874  eV     1   --> A              
     e(  6 -  6) =     -5.02716  eV     1   --> A              
     e(  7 -  7) =     -4.31962  eV     1   --> A              
     e(  8 -  8) =     -4.12949  eV     1   --> A              
     e(  9 -  9) =     -2.46804  eV     1   --> A              
     e( 10 - 10) =     -1.11195  eV     1   --> A              
     e( 11 - 11) =     -0.88875  eV     1   --> A              
     e( 12 - 12) =     -0.67076  eV     1   --> A              

 **************************************************************************

 **************************************************************************

                    xk=(   0.19998,   0.57732,   0.00000  )

     Band symmetry, C_1 (1)     point group:

     e(  1 -  1) =    -13.40201  eV     1   --> A              
     e(  2 -  2) =    -12.31642  eV     1   --> A              
     e(  3 -  3) =     -9.31017  eV     1   --> A              
     e(  4 -  4) =     -7.09283  eV     1   --> A              
     e(  5 -  5) =     -6.10209  eV     1   --> A              
     e(  6 -  6) =     -5.00445  eV     1   --> A              
     e(  7 -  7) =     -4.33649  eV     1   --> A              
     e(  8 -  8) =     -4.13197  eV     1   --> A              
     e(  9 -  9) =     -2.49240  eV     1   --> A              
     e( 10 - 10) =     -1.09077  eV     1   --> A              
     e( 11 - 11) =     -0.86263  eV     1   --> A              
     e( 12 - 12) =     -0.64292  eV     1   --> A              

 **************************************************************************

 **************************************************************************

                    xk=(   0.21109,   0.57731,   0.00000  )

     Band symmetry, C_1 (1)     point group:

     e(  1 -  1) =    -13.39513  eV     1   --> A              
     e(  2 -  2) =    -12.32628  eV     1   --> A              
     e(  3 -  3) =     -9.31958  eV     1   --> A              
     e(  4 -  4) =     -7.04933  eV     1   --> A              
     e(  5 -  5) =     -6.13650  eV     1   --> A              
     e(  6 -  6) =     -4.98074  eV     1   --> A              
     e(  7 -  7) =     -4.35461  eV     1   --> A              
     e(  8 -  8) =     -4.13423  eV     1   --> A              
     e(  9 -  9) =     -2.51524  eV     1   --> A              
     e( 10 - 10) =     -1.07156  eV     1   --> A              
     e( 11 - 11) =     -0.83508  eV     1   --> A              
     e( 12 - 12) =     -0.61423  eV     1   --> A              

 **************************************************************************

 **************************************************************************

                    xk=(   0.22220,   0.57731,   0.00000  )

     Band symmetry, C_1 (1)     point group:

     e(  1 -  1) =    -13.38833  eV     1   --> A              
     e(  2 -  2) =    -12.33599  eV     1   --> A              
     e(  3 -  3) =     -9.32832  eV     1   --> A              
     e(  4 -  4) =     -7.00536  eV     1   --> A              
     e(  5 -  5) =     -6.17188  eV     1   --> A              
     e(  6 -  6) =     -4.95614  eV     1   --> A              
     e(  7 -  7) =     -4.37381  eV     1   --> A              
     e(  8 -  8) =     -4.13632  eV     1   --> A              
     e(  9 -  9) =     -2.53649  eV     1   --> A              
     e( 10 - 10) =     -1.05422  eV     1   --> A              
     e( 11 - 11) =     -0.80637  eV     1   --> A              
     e( 12 - 12) =     -0.58497  eV     1   --> A              

 **************************************************************************

 **************************************************************************

                    xk=(   0.23331,   0.57731,   0.00000  )

     Band symmetry, C_1 (1)     point group:

     e(  1 -  1) =    -13.38169  eV     1   --> A              
     e(  2 -  2) =    -12.34544  eV     1   --> A              
     e(  3 -  3) =     -9.33634  eV     1   --> A              
     e(  4 -  4) =     -6.96108  eV     1   --> A              
     e(  5 -  5) =     -6.20812  eV     1   --> A              
     e(  6 -  6) =     -4.93083  eV     1   --> A              
     e(  7 -  7) =     -4.39390  eV     1   --> A              
     e(  8 -  8) =     -4.13831  eV     1   --> A              
     e(  9 -  9) =     -2.55603  eV     1   --> A              
     e( 10 - 10) =     -1.03865  eV     1   --> A              
     e( 11 - 11) =     -0.77665  eV     1   --> A              
     e( 12 - 12) =     -0.55551  eV     1   --> A              

 **************************************************************************

 **************************************************************************

                    xk=(   0.24442,   0.57731,   0.00000  )

     Band symmetry, C_1 (1)     point group:

     e(  1 -  1) =    -13.37531  eV     1   --> A              
     e(  2 -  2) =    -12.35450  eV     1   --> A              
     e(  3 -  3) =     -9.34360  eV     1   --> A              
     e(  4 -  4) =     -6.91665  eV     1   --> A              
     e(  5 -  5) =     -6.24516  eV     1   --> A              
     e(  6 -  6) =     -4.90500  eV     1   --> A              
     e(  7 -  7) =     -4.41467  eV     1   --> A              
     e(  8 -  8) =     -4.14024  eV     1   --> A              
     e(  9 -  9) =     -2.57379  eV     1   --> A              
     e( 10 - 10) =     -1.02477  eV     1   --> A              
     e( 11 - 11) =     -0.74612  eV     1   --> A              
     e( 12 - 12) =     -0.52640  eV     1   --> A              

 **************************************************************************

 **************************************************************************

                    xk=(   0.25553,   0.57731,   0.00000  )

     Band symmetry, C_1 (1)     point group:

     e(  1 -  1) =    -13.36927  eV     1   --> A              
     e(  2 -  2) =    -12.36303  eV     1   --> A              
     e(  3 -  3) =     -9.35006  eV     1   --> A              
     e(  4 -  4) =     -6.87220  eV     1   --> A              
     e(  5 -  5) =     -6.28289  eV     1   --> A              
     e(  6 -  6) =     -4.87892  eV     1   --> A              
     e(  7 -  7) =     -4.43587  eV     1   --> A              
     e(  8 -  8) =     -4.14210  eV     1   --> A              
     e(  9 -  9) =     -2.58970  eV     1   --> A              
     e( 10 - 10) =     -1.01252  eV     1   --> A              
     e( 11 - 11) =     -0.71485  eV     1   --> A              
     e( 12 - 12) =     -0.49839  eV     1   --> A              

 **************************************************************************

 **************************************************************************

                    xk=(   0.26664,   0.57730,   0.00000  )

     Band symmetry, C_1 (1)     point group:

     e(  1 -  1) =    -13.36370  eV     1   --> A              
     e(  2 -  2) =    -12.37089  eV     1   --> A              
     e(  3 -  3) =     -9.35570  eV     1   --> A              
     e(  4 -  4) =     -6.82789  eV     1   --> A              
     e(  5 -  5) =     -6.32123  eV     1   --> A              
     e(  6 -  6) =     -4.85296  eV     1   --> A              
     e(  7 -  7) =     -4.45720  eV     1   --> A              
     e(  8 -  8) =     -4.14390  eV     1   --> A              
     e(  9 -  9) =     -2.60369  eV     1   --> A              
     e( 10 - 10) =     -1.00187  eV     1   --> A              
     e( 11 - 11) =     -0.68301  eV     1   --> A              
     e( 12 - 12) =     -0.47255  eV     1   --> A              

 **************************************************************************

 **************************************************************************

                    xk=(   0.27775,   0.57730,   0.00000  )

     Band symmetry, C_1 (1)     point group:

     e(  1 -  1) =    -13.35869  eV     1   --> A              
     e(  2 -  2) =    -12.37793  eV     1   --> A              
     e(  3 -  3) =     -9.36049  eV     1   --> A              
     e(  4 -  4) =     -6.78390  eV     1   --> A              
     e(  5 -  5) =     -6.36006  eV     1   --> A              
     e(  6 -  6) =     -4.82761  eV     1   --> A              
     e(  7 -  7) =     -4.47822  eV     1   --> A              
     e(  8 -  8) =     -4.14560  eV     1   --> A              
     e(  9 -  9) =     -2.61569  eV     1   --> A              
     e( 10 - 10) =     -0.99281  eV     1   --> A              
     e( 11 - 11) =     -0.65062  eV     1   --> A              
     e( 12 - 12) =     -0.45030  eV     1   --> A              

 **************************************************************************

 **************************************************************************

                    xk=(   0.28886,   0.57730,   0.00000  )

     Band symmetry, C_1 (1)     point group:

     e(  1 -  1) =    -13.35436  eV     1   --> A              
     e(  2 -  2) =    -12.38401  eV     1   --> A              
     e(  3 -  3) =     -9.36442  eV     1   --> A              
     e(  4 -  4) =     -6.74042  eV     1   --> A              
     e(  5 -  5) =     -6.39922  eV     1   --> A              
     e(  6 -  6) =     -4.80358  eV     1   --> A              
     e(  7 -  7) =     -4.49833  eV     1   --> A              
     e(  8 -  8) =     -4.14717  eV     1   --> A              
     e(  9 -  9) =     -2.62563  eV     1   --> A              
     e( 10 - 10) =     -0.98532  eV     1   --> A              
     e( 11 - 11) =     -0.61782  eV     1   --> A              
     e( 12 - 12) =     -0.43363  eV     1   --> A              

 **************************************************************************

 **************************************************************************

                    xk=(   0.29997,   0.57730,   0.00000  )

     Band symmetry, C_1 (1)     point group:

     e(  1 -  1) =    -13.35081  eV     1   --> A              
     e(  2 -  2) =    -12.38898  eV     1   --> A              
     e(  3 -  3) =     -9.36749  eV     1   --> A              
     e(  4 -  4) =     -6.69775  eV     1   --> A              
     e(  5 -  5) =     -6.43845  eV     1   --> A              
     e(  6 -  6) =     -4.78192  eV     1   --> A              
     e(  7 -  7) =     -4.51662  eV     1   --> A              
     e(  8 -  8) =     -4.14852  eV     1   --> A              
     e(  9 -  9) =     -2.63346  eV     1   --> A              
     e( 10 - 10) =     -0.97943  eV     1   --> A              
     e( 11 - 11) =     -0.58469  eV     1   --> A              
     e( 12 - 12) =     -0.42499  eV     1   --> A              

 **************************************************************************

 **************************************************************************

                    xk=(   0.31108,   0.57730,   0.00000  )

     Band symmetry, C_1 (1)     point group:

     e(  1 -  1) =    -13.34817  eV     1   --> A              
     e(  2 -  2) =    -12.39268  eV     1   --> A              
     e(  3 -  3) =     -9.36968  eV     1   --> A              
     e(  4 -  4) =     -6.65660  eV     1   --> A              
     e(  5 -  5) =     -6.47711  eV     1   --> A              
     e(  6 -  6) =     -4.76414  eV     1   --> A              
     e(  7 -  7) =     -4.53175  eV     1   --> A              
     e(  8 -  8) =     -4.14959  eV     1   --> A              
     e(  9 -  9) =     -2.63913  eV     1   --> A              
     e( 10 - 10) =     -0.97514  eV     1   --> A              
     e( 11 - 11) =     -0.55161  eV     1   --> A              
     e( 12 - 12) =     -0.42688  eV     1   --> A              

 **************************************************************************

 **************************************************************************

                    xk=(   0.32219,   0.57729,   0.00000  )

     Band symmetry, C_1 (1)     point group:

     e(  1 -  1) =    -13.34653  eV     1   --> A              
     e(  2 -  2) =    -12.39497  eV     1   --> A              
     e(  3 -  3) =     -9.37101  eV     1   --> A              
     e(  4 -  4) =     -6.61934  eV     1   --> A              
     e(  5 -  5) =     -6.51285  eV     1   --> A              
     e(  6 -  6) =     -4.75220  eV     1   --> A              
     e(  7 -  7) =     -4.54195  eV     1   --> A              
     e(  8 -  8) =     -4.15028  eV     1   --> A              
     e(  9 -  9) =     -2.64257  eV     1   --> A              
     e( 10 - 10) =     -0.97251  eV     1   --> A              
     e( 11 - 11) =     -0.51986  eV     1   --> A              
     e( 12 - 12) =     -0.44006  eV     1   --> A              

 **************************************************************************

 **************************************************************************

                    xk=(   0.33330,   0.57729,   0.00000  )

     Band symmetry, C_1 (1)     point group:

     e(  1 -  1) =    -13.34598  eV     1   --> A              
     e(  2 -  2) =    -12.39573  eV     1   --> A              
     e(  3 -  3) =     -9.37147  eV     1   --> A              
     e(  4 -  4) =     -6.59945  eV     1   --> A              
     e(  5 -  5) =     -6.53221  eV     1   --> A              
     e(  6 -  6) =     -4.74801  eV     1   --> A              
     e(  7 -  7) =     -4.54550  eV     1   --> A              
     e(  8 -  8) =     -4.15051  eV     1   --> A              
     e(  9 -  9) =     -2.64374  eV     1   --> A              
     e( 10 - 10) =     -0.97161  eV     1   --> A              
     e( 11 - 11) =     -0.49924  eV     1   --> A              
     e( 12 - 12) =     -0.45480  eV     1   --> A              

 **************************************************************************

 **************************************************************************

                    xk=(   0.32219,   0.55805,   0.00000  )

     Band symmetry, C_1 (1)     point group:

     e(  1 -  1) =    -13.34832  eV     1   --> A              
     e(  2 -  2) =    -12.39247  eV     1   --> A              
     e(  3 -  3) =     -9.36964  eV     1   --> A              
     e(  4 -  4) =     -6.65556  eV     1   --> A              
     e(  5 -  5) =     -6.47823  eV     1   --> A              
     e(  6 -  6) =     -4.76373  eV     1   --> A              
     e(  7 -  7) =     -4.53274  eV     1   --> A              
     e(  8 -  8) =     -4.14948  eV     1   --> A              
     e(  9 -  9) =     -2.63897  eV     1   --> A              
     e( 10 - 10) =     -0.97559  eV     1   --> A              
     e( 11 - 11) =     -0.57007  eV     1   --> A              
     e( 12 - 12) =     -0.40116  eV     1   --> A              

 **************************************************************************

 **************************************************************************

                    xk=(   0.31108,   0.53881,   0.00000  )

     Band symmetry, C_1 (1)     point group:

     e(  1 -  1) =    -13.35583  eV     1   --> A              
     e(  2 -  2) =    -12.38183  eV     1   --> A              
     e(  3 -  3) =     -9.36454  eV     1   --> A              
     e(  4 -  4) =     -6.73735  eV     1   --> A              
     e(  5 -  5) =     -6.40293  eV     1   --> A              
     e(  6 -  6) =     -4.80211  eV     1   --> A              
     e(  7 -  7) =     -4.50429  eV     1   --> A              
     e(  8 -  8) =     -4.14603  eV     1   --> A              
     e(  9 -  9) =     -2.62457  eV     1   --> A              
     e( 10 - 10) =     -0.98917  eV     1   --> A              
     e( 11 - 11) =     -0.67306  eV     1   --> A              
     e( 12 - 12) =     -0.33223  eV     1   --> A              

 **************************************************************************

 **************************************************************************

                    xk=(   0.29997,   0.51956,   0.00000  )

     Band symmetry, C_1 (1)     point group:

     e(  1 -  1) =    -13.36868  eV     1   --> A              
     e(  2 -  2) =    -12.36337  eV     1   --> A              
     e(  3 -  3) =     -9.35636  eV     1   --> A              
     e(  4 -  4) =     -6.82196  eV     1   --> A              
     e(  5 -  5) =     -6.32942  eV     1   --> A              
     e(  6 -  6) =     -4.85094  eV     1   --> A              
     e(  7 -  7) =     -4.47350  eV     1   --> A              
     e(  8 -  8) =     -4.14068  eV     1   --> A              
     e(  9 -  9) =     -2.60040  eV     1   --> A              
     e( 10 - 10) =     -1.01694  eV     1   --> A              
     e( 11 - 11) =     -0.77154  eV     1   --> A              
     e( 12 - 12) =     -0.26327  eV     1   --> A              

 **************************************************************************

 **************************************************************************

                    xk=(   0.28886,   0.50032,   0.00000  )

     Band symmetry, C_1 (1)     point group:

     e(  1 -  1) =    -13.38667  eV     1   --> A              
     e(  2 -  2) =    -12.33702  eV     1   --> A              
     e(  3 -  3) =     -9.34528  eV     1   --> A              
     e(  4 -  4) =     -6.90766  eV     1   --> A              
     e(  5 -  5) =     -6.25961  eV     1   --> A              
     e(  6 -  6) =     -4.90428  eV     1   --> A              
     e(  7 -  7) =     -4.44629  eV     1   --> A              
     e(  8 -  8) =     -4.13511  eV     1   --> A              
     e(  9 -  9) =     -2.56660  eV     1   --> A              
     e( 10 - 10) =     -1.06508  eV     1   --> A              
     e( 11 - 11) =     -0.84759  eV     1   --> A              
     e( 12 - 12) =     -0.19651  eV     1   --> A              

 **************************************************************************

 **************************************************************************

                    xk=(   0.27775,   0.48108,   0.00000  )

     Band symmetry, C_1 (1)     point group:

     e(  1 -  1) =    -13.40937  eV     1   --> A              
     e(  2 -  2) =    -12.30298  eV     1   --> A              
     e(  3 -  3) =     -9.33155  eV     1   --> A              
     e(  4 -  4) =     -6.99396  eV     1   --> A              
     e(  5 -  5) =     -6.19413  eV     1   --> A              
     e(  6 -  6) =     -4.95950  eV     1   --> A              
     e(  7 -  7) =     -4.42409  eV     1   --> A              
     e(  8 -  8) =     -4.13210  eV     1   --> A              
     e(  9 -  9) =     -2.52389  eV     1   --> A              
     e( 10 - 10) =     -1.13123  eV     1   --> A              
     e( 11 - 11) =     -0.89617  eV     1   --> A              
     e( 12 - 12) =     -0.13406  eV     1   --> A              

 **************************************************************************

 **************************************************************************

                    xk=(   0.26664,   0.46183,   0.00000  )

     Band symmetry, C_1 (1)     point group:

     e(  1 -  1) =    -13.43614  eV     1   --> A              
     e(  2 -  2) =    -12.26170  eV     1   --> A              
     e(  3 -  3) =     -9.31540  eV     1   --> A              
     e(  4 -  4) =     -7.08064  eV     1   --> A              
     e(  5 -  5) =     -6.13336  eV     1   --> A              
     e(  6 -  6) =     -5.01524  eV     1   --> A              
     e(  7 -  7) =     -4.40641  eV     1   --> A              
     e(  8 -  8) =     -4.13460  eV     1   --> A              
     e(  9 -  9) =     -2.47382  eV     1   --> A              
     e( 10 - 10) =     -1.20122  eV     1   --> A              
     e( 11 - 11) =     -0.92573  eV     1   --> A              
     e( 12 - 12) =     -0.07845  eV     1   --> A              

 **************************************************************************

 **************************************************************************

                    xk=(   0.25553,   0.44259,   0.00000  )

     Band symmetry, C_1 (1)     point group:

     e(  1 -  1) =    -13.46623  eV     1   --> A              
     e(  2 -  2) =    -12.21372  eV     1   --> A              
     e(  3 -  3) =     -9.29709  eV     1   --> A              
     e(  4 -  4) =     -7.16759  eV     1   --> A              
     e(  5 -  5) =     -6.07755  eV     1   --> A              
     e(  6 -  6) =     -5.07068  eV     1   --> A              
     e(  7 -  7) =     -4.39257  eV     1   --> A              
     e(  8 -  8) =     -4.14458  eV     1   --> A              
     e(  9 -  9) =     -2.41894  eV     1   --> A              
     e( 10 - 10) =     -1.26284  eV     1   --> A              
     e( 11 - 11) =     -0.94367  eV     1   --> A              
     e( 12 - 12) =     -0.03276  eV     1   --> A              

 **************************************************************************

 **************************************************************************

                    xk=(   0.24442,   0.42335,   0.00000  )

     Band symmetry, C_1 (1)     point group:

     e(  1 -  1) =    -13.49892  eV     1   --> A              
     e(  2 -  2) =    -12.15965  eV     1   --> A              
     e(  3 -  3) =     -9.27690  eV     1   --> A              
     e(  4 -  4) =     -7.25473  eV     1   --> A              
     e(  5 -  5) =     -6.02689  eV     1   --> A              
     e(  6 -  6) =     -5.12523  eV     1   --> A              
     e(  7 -  7) =     -4.38322  eV     1   --> A              
     e(  8 -  8) =     -4.16158  eV     1   --> A              
     e(  9 -  9) =     -2.36266  eV     1   --> A              
     e( 10 - 10) =     -1.31049  eV     1   --> A              
     e( 11 - 11) =     -0.95136  eV     1   --> A              
     e( 12 - 12) =     -0.00015  eV     1   --> A              

 **************************************************************************

 **************************************************************************

                    xk=(   0.23331,   0.40410,   0.00000  )

     Band symmetry, C_1 (1)     point group:

     e(  1 -  1) =    -13.53347  eV     1   --> A              
     e(  2 -  2) =    -12.10008  eV     1   --> A              
     e(  3 -  3) =     -9.25510  eV     1   --> A              
     e(  4 -  4) =     -7.34204  eV     1   --> A              
     e(  5 -  5) =     -5.98151  eV     1   --> A              
     e(  6 -  6) =     -5.17840  eV     1   --> A              
     e(  7 -  7) =     -4.38206  eV     1   --> A              
     e(  8 -  8) =     -4.18109  eV     1   --> A              
     e(  9 -  9) =     -2.30874  eV     1   --> A              
     e( 10 - 10) =     -1.34375  eV     1   --> A              
     e( 11 - 11) =     -0.94616  eV     1   --> A              
     e( 12 - 12) =      0.01690  eV     1   --> A              

 **************************************************************************

 **************************************************************************

                    xk=(   0.22220,   0.38486,   0.00000  )

     Band symmetry, C_1 (1)     point group:

     e(  1 -  1) =    -13.56925  eV     1   --> A              
     e(  2 -  2) =    -12.03558  eV     1   --> A              
     e(  3 -  3) =     -9.23196  eV     1   --> A              
     e(  4 -  4) =     -7.42949  eV     1   --> A              
     e(  5 -  5) =     -5.94148  eV     1   --> A              
     e(  6 -  6) =     -5.22976  eV     1   --> A              
     e(  7 -  7) =     -4.39698  eV     1   --> A              
     e(  8 -  8) =     -4.19367  eV     1   --> A              
     e(  9 -  9) =     -2.26033  eV     1   --> A              
     e( 10 - 10) =     -1.36624  eV     1   --> A              
     e( 11 - 11) =     -0.92333  eV     1   --> A              
     e( 12 - 12) =      0.01770  eV     1   --> A              

 **************************************************************************

 **************************************************************************

                    xk=(   0.21109,   0.36562,   0.00000  )

     Band symmetry, C_1 (1)     point group:

     e(  1 -  1) =    -13.60567  eV     1   --> A              
     e(  2 -  2) =    -11.96668  eV     1   --> A              
     e(  3 -  3) =     -9.20778  eV     1   --> A              
     e(  4 -  4) =     -7.51710  eV     1   --> A              
     e(  5 -  5) =     -5.90682  eV     1   --> A              
     e(  6 -  6) =     -5.27889  eV     1   --> A              
     e(  7 -  7) =     -4.43469  eV     1   --> A              
     e(  8 -  8) =     -4.19056  eV     1   --> A              
     e(  9 -  9) =     -2.21909  eV     1   --> A              
     e( 10 - 10) =     -1.38407  eV     1   --> A              
     e( 11 - 11) =     -0.87858  eV     1   --> A              
     e( 12 - 12) =      0.00408  eV     1   --> A              

 **************************************************************************

 **************************************************************************

                    xk=(   0.19998,   0.34638,   0.00000  )

     Band symmetry, C_1 (1)     point group:

     e(  1 -  1) =    -13.64224  eV     1   --> A              
     e(  2 -  2) =    -11.89386  eV     1   --> A              
     e(  3 -  3) =     -9.18282  eV     1   --> A              
     e(  4 -  4) =     -7.60488  eV     1   --> A              
     e(  5 -  5) =     -5.87753  eV     1   --> A              
     e(  6 -  6) =     -5.32536  eV     1   --> A              
     e(  7 -  7) =     -4.49305  eV     1   --> A              
     e(  8 -  8) =     -4.17161  eV     1   --> A              
     e(  9 -  9) =     -2.18492  eV     1   --> A              
     e( 10 - 10) =     -1.40286  eV     1   --> A              
     e( 11 - 11) =     -0.81161  eV     1   --> A              
     e( 12 - 12) =     -0.01911  eV     1   --> A              

 **************************************************************************

 **************************************************************************

                    xk=(   0.18887,   0.32713,   0.00000  )

     Band symmetry, C_1 (1)     point group:

     e(  1 -  1) =    -13.67851  eV     1   --> A              
     e(  2 -  2) =    -11.81761  eV     1   --> A              
     e(  3 -  3) =     -9.15739  eV     1   --> A              
     e(  4 -  4) =     -7.69285  eV     1   --> A              
     e(  5 -  5) =     -5.85360  eV     1   --> A              
     e(  6 -  6) =     -5.36869  eV     1   --> A              
     e(  7 -  7) =     -4.56550  eV     1   --> A              
     e(  8 -  8) =     -4.14112  eV     1   --> A              
     e(  9 -  9) =     -2.15655  eV     1   --> A              
     e( 10 - 10) =     -1.42568  eV     1   --> A              
     e( 11 - 11) =     -0.72903  eV     1   --> A              
     e( 12 - 12) =     -0.04331  eV     1   --> A              

 **************************************************************************

 **************************************************************************

                    xk=(   0.17776,   0.30789,   0.00000  )

     Band symmetry, C_1 (1)     point group:

     e(  1 -  1) =    -13.71411  eV     1   --> A              
     e(  2 -  2) =    -11.73836  eV     1   --> A              
     e(  3 -  3) =     -9.13174  eV     1   --> A              
     e(  4 -  4) =     -7.78098  eV     1   --> A              
     e(  5 -  5) =     -5.83503  eV     1   --> A              
     e(  6 -  6) =     -5.40834  eV     1   --> A              
     e(  7 -  7) =     -4.64657  eV     1   --> A              
     e(  8 -  8) =     -4.10243  eV     1   --> A              
     e(  9 -  9) =     -2.13231  eV     1   --> A              
     e( 10 - 10) =     -1.45313  eV     1   --> A              
     e( 11 - 11) =     -0.64617  eV     1   --> A              
     e( 12 - 12) =     -0.05375  eV     1   --> A              

 **************************************************************************

 **************************************************************************

                    xk=(   0.16665,   0.28865,   0.00000  )

     Band symmetry, C_1 (1)     point group:

     e(  1 -  1) =    -13.74873  eV     1   --> A              
     e(  2 -  2) =    -11.65657  eV     1   --> A              
     e(  3 -  3) =     -9.10614  eV     1   --> A              
     e(  4 -  4) =     -7.86928  eV     1   --> A              
     e(  5 -  5) =     -5.82188  eV     1   --> A              
     e(  6 -  6) =     -5.44372  eV     1   --> A              
     e(  7 -  7) =     -4.73244  eV     1   --> A              
     e(  8 -  8) =     -4.05760  eV     1   --> A              
     e(  9 -  9) =     -2.11078  eV     1   --> A              
     e( 10 - 10) =     -1.48462  eV     1   --> A              
     e( 11 - 11) =     -0.58721  eV     1   --> A              
     e( 12 - 12) =     -0.02811  eV     1   --> A              

 **************************************************************************

 **************************************************************************

                    xk=(   0.15554,   0.26940,   0.00000  )

     Band symmetry, C_1 (1)     point group:

     e(  1 -  1) =    -13.78208  eV     1   --> A              
     e(  2 -  2) =    -11.57269  eV     1   --> A              
     e(  3 -  3) =     -9.08087  eV     1   --> A              
     e(  4 -  4) =     -7.95767  eV     1   --> A              
     e(  5 -  5) =     -5.81427  eV     1   --> A              
     e(  6 -  6) =     -5.47420  eV     1   --> A              
     e(  7 -  7) =     -4.82026  eV     1   --> A              
     e(  8 -  8) =     -4.00798  eV     1   --> A              
     e(  9 -  9) =     -2.09098  eV     1   --> A              
     e( 10 - 10) =     -1.51922  eV     1   --> A              
     e( 11 - 11) =     -0.57186  eV     1   --> A              
     e( 12 - 12) =      0.05128  eV     1   --> A              

 **************************************************************************

 **************************************************************************

                    xk=(   0.14443,   0.25016,   0.00000  )

     Band symmetry, C_1 (1)     point group:

     e(  1 -  1) =    -13.81394  eV     1   --> A              
     e(  2 -  2) =    -11.48722  eV     1   --> A              
     e(  3 -  3) =     -9.05616  eV     1   --> A              
     e(  4 -  4) =     -8.04602  eV     1   --> A              
     e(  5 -  5) =     -5.81223  eV     1   --> A              
     e(  6 -  6) =     -5.49923  eV     1   --> A              
     e(  7 -  7) =     -4.90784  eV     1   --> A              
     e(  8 -  8) =     -3.95465  eV     1   --> A              
     e(  9 -  9) =     -2.07235  eV     1   --> A              
     e( 10 - 10) =     -1.55608  eV     1   --> A              
     e( 11 - 11) =     -0.59626  eV     1   --> A              
     e( 12 - 12) =      0.17846  eV     1   --> A              

 **************************************************************************

 **************************************************************************

                    xk=(   0.13332,   0.23092,   0.00000  )

     Band symmetry, C_1 (1)     point group:

     e(  1 -  1) =    -13.84408  eV     1   --> A              
     e(  2 -  2) =    -11.40068  eV     1   --> A              
     e(  3 -  3) =     -9.03226  eV     1   --> A              
     e(  4 -  4) =     -8.13415  eV     1   --> A              
     e(  5 -  5) =     -5.81558  eV     1   --> A              
     e(  6 -  6) =     -5.51855  eV     1   --> A              
     e(  7 -  7) =     -4.99338  eV     1   --> A              
     e(  8 -  8) =     -3.89856  eV     1   --> A              
     e(  9 -  9) =     -2.05461  eV     1   --> A              
     e( 10 - 10) =     -1.59446  eV     1   --> A              
     e( 11 - 11) =     -0.64403  eV     1   --> A              
     e( 12 - 12) =      0.33477  eV     1   --> A              

 **************************************************************************

 **************************************************************************

                    xk=(   0.12221,   0.21167,   0.00000  )

     Band symmetry, C_1 (1)     point group:

     e(  1 -  1) =    -13.87235  eV     1   --> A              
     e(  2 -  2) =    -11.31370  eV     1   --> A              
     e(  3 -  3) =     -9.00941  eV     1   --> A              
     e(  4 -  4) =     -8.22174  eV     1   --> A              
     e(  5 -  5) =     -5.82379  eV     1   --> A              
     e(  6 -  6) =     -5.53232  eV     1   --> A              
     e(  7 -  7) =     -5.07542  eV     1   --> A              
     e(  8 -  8) =     -3.84069  eV     1   --> A              
     e(  9 -  9) =     -2.03772  eV     1   --> A              
     e( 10 - 10) =     -1.63377  eV     1   --> A              
     e( 11 - 11) =     -0.70280  eV     1   --> A              
     e( 12 - 12) =      0.50460  eV     1   --> A              

 **************************************************************************

 **************************************************************************

                    xk=(   0.11110,   0.19243,   0.00000  )

     Band symmetry, C_1 (1)     point group:

     e(  1 -  1) =    -13.89859  eV     1   --> A              
     e(  2 -  2) =    -11.22694  eV     1   --> A              
     e(  3 -  3) =     -8.98781  eV     1   --> A              
     e(  4 -  4) =     -8.30837  eV     1   --> A              
     e(  5 -  5) =     -5.83588  eV     1   --> A              
     e(  6 -  6) =     -5.54118  eV     1   --> A              
     e(  7 -  7) =     -5.15278  eV     1   --> A              
     e(  8 -  8) =     -3.78198  eV     1   --> A              
     e(  9 -  9) =     -2.02174  eV     1   --> A              
     e( 10 - 10) =     -1.67346  eV     1   --> A              
     e( 11 - 11) =     -0.76551  eV     1   --> A              
     e( 12 - 12) =      0.67558  eV     1   --> A              

 **************************************************************************

 **************************************************************************

                    xk=(   0.09999,   0.17319,   0.00000  )

     Band symmetry, C_1 (1)     point group:

     e(  1 -  1) =    -13.92267  eV     1   --> A              
     e(  2 -  2) =    -11.14125  eV     1   --> A              
     e(  3 -  3) =     -8.96766  eV     1   --> A              
     e(  4 -  4) =     -8.39346  eV     1   --> A              
     e(  5 -  5) =     -5.85065  eV     1   --> A              
     e(  6 -  6) =     -5.54609  eV     1   --> A              
     e(  7 -  7) =     -5.22448  eV     1   --> A              
     e(  8 -  8) =     -3.72342  eV     1   --> A              
     e(  9 -  9) =     -2.00679  eV     1   --> A              
     e( 10 - 10) =     -1.71300  eV     1   --> A              
     e( 11 - 11) =     -0.82815  eV     1   --> A              
     e( 12 - 12) =      0.83304  eV     1   --> A              

 **************************************************************************

 **************************************************************************

                    xk=(   0.08888,   0.15394,   0.00000  )

     Band symmetry, C_1 (1)     point group:

     e(  1 -  1) =    -13.94449  eV     1   --> A              
     e(  2 -  2) =    -11.05758  eV     1   --> A              
     e(  3 -  3) =     -8.94916  eV     1   --> A              
     e(  4 -  4) =     -8.47624  eV     1   --> A              
     e(  5 -  5) =     -5.86687  eV     1   --> A              
     e(  6 -  6) =     -5.54806  eV     1   --> A              
     e(  7 -  7) =     -5.28978  eV     1   --> A              
     e(  8 -  8) =     -3.66609  eV     1   --> A              
     e(  9 -  9) =     -1.99301  eV     1   --> A              
     e( 10 - 10) =     -1.75182  eV     1   --> A              
     e( 11 - 11) =     -0.88816  eV     1   --> A              
     e( 12 - 12) =      0.95253  eV     1   --> A              

 **************************************************************************

 **************************************************************************

                    xk=(   0.07777,   0.13470,   0.00000  )

     Band symmetry, C_1 (1)     point group:

     e(  1 -  1) =    -13.96394  eV     1   --> A              
     e(  2 -  2) =    -10.97711  eV     1   --> A              
     e(  3 -  3) =     -8.93245  eV     1   --> A              
     e(  4 -  4) =     -8.55566  eV     1   --> A              
     e(  5 -  5) =     -5.88346  eV     1   --> A              
     e(  6 -  6) =     -5.54800  eV     1   --> A              
     e(  7 -  7) =     -5.34807  eV     1   --> A              
     e(  8 -  8) =     -3.61108  eV     1   --> A              
     e(  9 -  9) =     -1.98053  eV     1   --> A              
     e( 10 - 10) =     -1.78926  eV     1   --> A              
     e( 11 - 11) =     -0.94378  eV     1   --> A              
     e( 12 - 12) =      1.00671  eV     1   --> A              

 **************************************************************************

 **************************************************************************

                    xk=(   0.06666,   0.11546,   0.00000  )

     Band symmetry, C_1 (1)     point group:

     e(  1 -  1) =    -13.98094  eV     1   --> A              
     e(  2 -  2) =    -10.90124  eV     1   --> A              
     e(  3 -  3) =     -8.91768  eV     1   --> A              
     e(  4 -  4) =     -8.63046  eV     1   --> A              
     e(  5 -  5) =     -5.89949  eV     1   --> A              
     e(  6 -  6) =     -5.54668  eV     1   --> A              
     e(  7 -  7) =     -5.39895  eV     1   --> A              
     e(  8 -  8) =     -3.55958  eV     1   --> A              
     e(  9 -  9) =     -1.96947  eV     1   --> A              
     e( 10 - 10) =     -1.82458  eV     1   --> A              
     e( 11 - 11) =     -0.99379  eV     1   --> A              
     e( 12 - 12) =      1.00851  eV     1   --> A              

 **************************************************************************

 **************************************************************************

                    xk=(   0.05555,   0.09622,   0.00000  )

     Band symmetry, C_1 (1)     point group:

     e(  1 -  1) =    -13.99544  eV     1   --> A              
     e(  2 -  2) =    -10.83164  eV     1   --> A              
     e(  3 -  3) =     -8.90497  eV     1   --> A              
     e(  4 -  4) =     -8.69905  eV     1   --> A              
     e(  5 -  5) =     -5.91426  eV     1   --> A              
     e(  6 -  6) =     -5.54469  eV     1   --> A              
     e(  7 -  7) =     -5.44215  eV     1   --> A              
     e(  8 -  8) =     -3.51286  eV     1   --> A              
     e(  9 -  9) =     -1.95996  eV     1   --> A              
     e( 10 - 10) =     -1.85693  eV     1   --> A              
     e( 11 - 11) =     -1.03732  eV     1   --> A              
     e( 12 - 12) =      0.98989  eV     1   --> A              

 **************************************************************************

 **************************************************************************

                    xk=(   0.04444,   0.07697,   0.00000  )

     Band symmetry, C_1 (1)     point group:

     e(  1 -  1) =    -14.00737  eV     1   --> A              
     e(  2 -  2) =    -10.77023  eV     1   --> A              
     e(  3 -  3) =     -8.89444  eV     1   --> A              
     e(  4 -  4) =     -8.75957  eV     1   --> A              
     e(  5 -  5) =     -5.92716  eV     1   --> A              
     e(  6 -  6) =     -5.54249  eV     1   --> A              
     e(  7 -  7) =     -5.47751  eV     1   --> A              
     e(  8 -  8) =     -3.47220  eV     1   --> A              
     e(  9 -  9) =     -1.95207  eV     1   --> A              
     e( 10 - 10) =     -1.88536  eV     1   --> A              
     e( 11 - 11) =     -1.07368  eV     1   --> A              
     e( 12 - 12) =      0.96683  eV     1   --> A              

 **************************************************************************

 **************************************************************************

                    xk=(   0.03333,   0.05773,   0.00000  )

     Band symmetry, C_1 (1)     point group:

     e(  1 -  1) =    -14.01669  eV     1   --> A              
     e(  2 -  2) =    -10.71916  eV     1   --> A              
     e(  3 -  3) =     -8.88615  eV     1   --> A              
     e(  4 -  4) =     -8.80992  eV     1   --> A              
     e(  5 -  5) =     -5.93770  eV     1   --> A              
     e(  6 -  6) =     -5.54043  eV     1   --> A              
     e(  7 -  7) =     -5.50497  eV     1   --> A              
     e(  8 -  8) =     -3.43887  eV     1   --> A              
     e(  9 -  9) =     -1.94587  eV     1   --> A              
     e( 10 - 10) =     -1.90886  eV     1   --> A              
     e( 11 - 11) =     -1.10240  eV     1   --> A              
     e( 12 - 12) =      0.94562  eV     1   --> A              

 **************************************************************************

 **************************************************************************

                    xk=(   0.02222,   0.03849,   0.00000  )

     Band symmetry, C_1 (1)     point group:

     e(  1 -  1) =    -14.02338  eV     1   --> A              
     e(  2 -  2) =    -10.68062  eV     1   --> A              
     e(  3 -  3) =     -8.88018  eV     1   --> A              
     e(  4 -  4) =     -8.84795  eV     1   --> A              
     e(  5 -  5) =     -5.94552  eV     1   --> A              
     e(  6 -  6) =     -5.53878  eV     1   --> A              
     e(  7 -  7) =     -5.52455  eV     1   --> A              
     e(  8 -  8) =     -3.41405  eV     1   --> A              
     e(  9 -  9) =     -1.94141  eV     1   --> A              
     e( 10 - 10) =     -1.92650  eV     1   --> A              
     e( 11 - 11) =     -1.12316  eV     1   --> A              
     e( 12 - 12) =      0.92908  eV     1   --> A              

 **************************************************************************

 **************************************************************************

                    xk=(   0.01111,   0.01924,   0.00000  )

     Band symmetry, C_1 (1)     point group:

     e(  1 -  1) =    -14.02740  eV     1   --> A              
     e(  2 -  2) =    -10.65656  eV     1   --> A              
     e(  3 -  3) =     -8.87659  eV     1   --> A              
     e(  4 -  4) =     -8.87168  eV     1   --> A              
     e(  5 -  5) =     -5.95032  eV     1   --> A              
     e(  6 -  6) =     -5.53773  eV     1   --> A              
     e(  7 -  7) =     -5.53628  eV     1   --> A              
     e(  8 -  8) =     -3.39873  eV     1   --> A              
     e(  9 -  9) =     -1.93872  eV     1   --> A              
     e( 10 - 10) =     -1.93745  eV     1   --> A              
     e( 11 - 11) =     -1.13570  eV     1   --> A              
     e( 12 - 12) =      0.91868  eV     1   --> A              

 **************************************************************************

 **************************************************************************

                    xk=(   0.00000,   0.00000,   0.00000  )

     point group C_s (m)    
     there are  2 classes
     the character table:

       E     s    
A'     1.00  1.00
A''    1.00 -1.00

     the symmetry operations in each class and the name of the first element:

     E        1
                                                                 
     s        2
                                                                 

     Band symmetry, C_s (m)     point group:

     e(  1 -  1) =    -14.02874  eV     1   --> A'             
     e(  2 -  2) =    -10.64837  eV     1   --> A'             
     e(  3 -  3) =     -8.87978  eV     1   --> A''            
     e(  4 -  4) =     -8.87538  eV     1   --> A'             
     e(  5 -  5) =     -5.95194  eV     1   --> A'             
     e(  6 -  6) =     -5.54018  eV     1   --> A'             
     e(  7 -  7) =     -5.53735  eV     1   --> A''            
     e(  8 -  8) =     -3.39354  eV     1   --> A'             
     e(  9 -  9) =     -1.94117  eV     1   --> A''            
     e( 10 - 10) =     -1.93783  eV     1   --> A'             
     e( 11 - 11) =     -1.13988  eV     1   --> A'             
     e( 12 - 12) =      0.91514  eV     1   --> A'             

 **************************************************************************

     BANDS        :     35.34s CPU     33.01s WALL


   This run was terminated on:  21:42: 8   8Jan2025            

=------------------------------------------------------------------------------=
   JOB DONE.
=------------------------------------------------------------------------------=
