 CRYSTAL
 PRIMVEC
    5.860000000    0.000000000    0.000000000
   -2.930000000    5.074908866    0.000000000
    0.000000000    0.000000000   20.000000000
 PRIMCOORD
           4           1
Si        1.465000000    2.537454433   10.000000000
Si        2.590120000    0.588689428   10.000000000
Si        3.715240000    2.537454433   10.000000000
Si       -0.341345000    3.580348205   11.040000000
BEGIN_BLOCK_DATAGRID_3D
3D_PWSCF
DATAGRID_3D_UNKNOWN
          64          64          64
  0.000000  0.000000  0.000000
  5.860000  0.000000  0.000000
 -2.930000  5.074909  0.000000
  0.000000  0.000000 20.000000
  0.266588E-09  0.283507E-09  0.285195E-09  0.270237E-09  0.256360E-09  0.256712E-09
  0.264004E-09  0.266373E-09  0.267098E-09  0.273777E-09  0.276951E-09  0.263810E-09
  0.247896E-09  0.256179E-09  0.286243E-09  0.304590E-09  0.294115E-09  0.275032E-09
  0.267909E-09  0.264757E-09  0.253690E-09  0.243869E-09  0.245316E-09  0.250524E-09
  0.250910E-09  0.247763E-09  0.238914E-09  0.220316E-09  0.204768E-09  0.209795E-09
  0.229403E-09  0.244096E-09  0.249384E-09  0.251151E-09  0.248424E-09  0.243286E-09
  0.246886E-09  0.259217E-09  0.266616E-09  0.269163E-09  0.282240E-09  0.301551E-09
  0.300432E-09  0.272829E-09  0.248779E-09  0.252967E-09  0.271272E-09  0.277293E-09
  0.270351E-09  0.265992E-09  0.265979E-09  0.261054E-09  0.254872E-09  0.260923E-09
  0.277839E-09  0.287105E-09  0.277422E-09  0.259533E-09  0.252759E-09  0.261863E-09
  0.272117E-09  0.268780E-09  0.256466E-09  0.253156E-09  0.253156E-09  0.260930E-09
  0.269337E-09  0.262272E-09  0.245569E-09  0.244634E-09  0.265616E-09  0.283299E-09
  0.280378E-09  0.272909E-09  0.277624E-09  0.280362E-09  0.265775E-09  0.253722E-09
  0.270181E-09  0.298903E-09  0.301651E-09  0.276979E-09  0.257437E-09  0.254442E-09
  0.249752E-09  0.239310E-09  0.239674E-09  0.251893E-09  0.259305E-09  0.256752E-09
  0.249869E-09  0.236384E-09  0.218039E-09  0.212059E-09  0.225690E-09  0.243425E-09
  0.253262E-09  0.258336E-09  0.257229E-09  0.245960E-09  0.237295E-09  0.243536E-09
  0.252952E-09  0.254352E-09  0.263054E-09  0.288760E-09  0.305044E-09  0.288103E-09
  0.259766E-09  0.256272E-09  0.273624E-09  0.281112E-09  0.274503E-09  0.274859E-09
  0.283435E-09  0.277827E-09  0.255044E-09  0.241818E-09  0.252420E-09  0.267679E-09
  0.267062E-09  0.256747E-09  0.253612E-09  0.260296E-09  0.267817E-09  0.269764E-09
  0.264978E-09  0.256457E-09  0.256466E-09  0.248952E-09  0.256286E-09  0.267238E-09
  0.262431E-09  0.251716E-09  0.260947E-09  0.285571E-09  0.294725E-09  0.281596E-09
  0.272406E-09  0.279212E-09  0.281773E-09  0.269775E-09  0.265931E-09  0.285113E-09
  0.302884E-09  0.293394E-09  0.270357E-09  0.259151E-09  0.255187E-09  0.244294E-09
  0.237126E-09  0.247608E-09  0.263861E-09  0.269062E-09  0.265668E-09  0.259441E-09
  0.248087E-09  0.238053E-09  0.241279E-09  0.253559E-09  0.262576E-09  0.267366E-09
  0.268126E-09  0.257306E-09  0.240803E-09  0.238255E-09  0.249736E-09  0.257179E-09
  0.261736E-09  0.279490E-09  0.300599E-09  0.297825E-09  0.275088E-09  0.264867E-09
  0.275806E-09  0.282802E-09  0.275355E-09  0.274175E-09  0.288257E-09  0.293861E-09
  0.275003E-09  0.253906E-09  0.255277E-09  0.266788E-09  0.263846E-09  0.251542E-09
  0.251070E-09  0.261341E-09  0.265641E-09  0.263154E-09  0.264235E-09  0.264978E-09
  0.268780E-09  0.253949E-09  0.248806E-09  0.266221E-09  0.283311E-09  0.279152E-09
  0.269207E-09  0.275862E-09  0.288908E-09  0.285097E-09  0.269294E-09  0.265255E-09
  0.274679E-09  0.276962E-09  0.268229E-09  0.268960E-09  0.286114E-09  0.298366E-09
  0.291030E-09  0.276339E-09  0.265643E-09  0.252472E-09  0.238133E-09  0.239528E-09
  0.258335E-09  0.274610E-09  0.277122E-09  0.272778E-09  0.266755E-09  0.259638E-09
  0.257316E-09  0.262594E-09  0.269588E-09  0.274908E-09  0.277367E-09  0.268990E-09
  0.248869E-09  0.235850E-09  0.243213E-09  0.258805E-09  0.269950E-09  0.282248E-09
  0.295963E-09  0.295082E-09  0.277717E-09  0.266341E-09  0.272323E-09  0.278028E-09
  0.270325E-09  0.264643E-09  0.275717E-09  0.289004E-09  0.284277E-09  0.271072E-09
  0.272516E-09  0.283452E-09  0.278154E-09  0.256865E-09  0.248310E-09  0.261175E-09
  0.271489E-09  0.266585E-09  0.263154E-09  0.269764E-09  0.272117E-09  0.262018E-09
  0.247450E-09  0.253502E-09  0.277716E-09  0.291553E-09  0.283244E-09  0.270863E-09
  0.269505E-09  0.270639E-09  0.262983E-09  0.254757E-09  0.259331E-09  0.269893E-09
  0.268958E-09  0.259412E-09  0.262609E-09  0.282865E-09  0.298518E-09  0.294112E-09
  0.277119E-09  0.257520E-09  0.238680E-09  0.231039E-09  0.244693E-09  0.268902E-09
  0.282126E-09  0.278767E-09  0.269331E-09  0.261765E-09  0.258012E-09  0.259098E-09
  0.264647E-09  0.273499E-09  0.281672E-09  0.278571E-09  0.258521E-09  0.236057E-09
  0.231700E-09  0.246040E-09  0.266019E-09  0.285180E-09  0.298269E-09  0.293648E-09
  0.272932E-09  0.258604E-09  0.263351E-09  0.271408E-09  0.265923E-09  0.255674E-09
  0.257182E-09  0.267077E-09  0.270806E-09  0.269034E-09  0.275555E-09  0.289030E-09
  0.288564E-09  0.266800E-09  0.247662E-09  0.252750E-09  0.268546E-09  0.271489E-09
  0.265641E-09  0.267817E-09  0.261863E-09  0.258325E-09  0.247631E-09  0.242991E-09
  0.253877E-09  0.270108E-09  0.274998E-09  0.265966E-09  0.253987E-09  0.247647E-09
  0.245324E-09  0.244246E-09  0.249248E-09  0.262419E-09  0.271003E-09  0.263289E-09
  0.252830E-09  0.263408E-09  0.290655E-09  0.304629E-09  0.291241E-09  0.265012E-09
  0.242436E-09  0.230285E-09  0.234553E-09  0.255132E-09  0.276325E-09  0.280842E-09
  0.270293E-09  0.258902E-09  0.253802E-09  0.252992E-09  0.255214E-09  0.263227E-09
  0.275882E-09  0.281337E-09  0.268503E-09  0.244846E-09  0.230181E-09  0.233729E-09
  0.251088E-09  0.276628E-09  0.299936E-09  0.301887E-09  0.278452E-09  0.255409E-09
  0.255849E-09  0.268505E-09  0.269092E-09  0.256302E-09  0.246011E-09  0.244382E-09
  0.246053E-09  0.249559E-09  0.258908E-09  0.271343E-09  0.275084E-09  0.263736E-09
  0.247584E-09  0.243443E-09  0.252750E-09  0.261175E-09  0.261341E-09  0.260296E-09
  0.252759E-09  0.249592E-09  0.247689E-09  0.247589E-09  0.247177E-09  0.246745E-09
  0.248202E-09  0.249299E-09  0.244960E-09  0.235811E-09  0.228838E-09  0.228853E-09
  0.237068E-09  0.253771E-09  0.271347E-09  0.273883E-09  0.260067E-09  0.254695E-09
  0.275689E-09  0.302912E-09  0.304269E-09  0.279613E-09  0.253996E-09  0.241667E-09
  0.240734E-09  0.248864E-09  0.262818E-09  0.272107E-09  0.269673E-09  0.262299E-09
  0.259355E-09  0.260091E-09  0.259665E-09  0.259835E-09  0.265382E-09  0.272155E-09
  0.269593E-09  0.256698E-09  0.244157E-09  0.239860E-09  0.245330E-09  0.263835E-09
  0.292108E-09  0.307968E-09  0.292842E-09  0.263655E-09  0.253892E-09  0.266821E-09
  0.275513E-09  0.264801E-09  0.245892E-09  0.232634E-09  0.227911E-09  0.230979E-09
  0.239843E-09  0.247860E-09  0.249424E-09  0.247310E-09  0.246785E-09  0.247584E-09
  0.247662E-09  0.248310E-09  0.251070E-09  0.253612E-09  0.259533E-09  0.253901E-09
  0.252286E-09  0.261596E-09  0.267565E-09  0.257305E-09  0.240652E-09  0.234382E-09
  0.238203E-09  0.239454E-09  0.233104E-09  0.225554E-09  0.225068E-09  0.236625E-09
  0.257323E-09  0.271842E-09  0.266433E-09  0.252577E-09  0.257427E-09  0.283641E-09
  0.301615E-09  0.291073E-09  0.267382E-09  0.255012E-09  0.256359E-09  0.259558E-09
  0.259418E-09  0.258564E-09  0.259090E-09  0.261807E-09  0.267264E-09  0.273205E-09
  0.274996E-09  0.270847E-09  0.264483E-09  0.260308E-09  0.258793E-09  0.258892E-09
  0.259710E-09  0.258454E-09  0.254813E-09  0.258267E-09  0.277473E-09  0.299071E-09
  0.297156E-09  0.271255E-09  0.251764E-09  0.257613E-09  0.271257E-09  0.267733E-09
  0.248133E-09  0.230360E-09  0.224275E-09  0.228343E-09  0.236269E-09  0.239753E-09
  0.236126E-09  0.235282E-09  0.247310E-09  0.263736E-09  0.266800E-09  0.256865E-09
  0.251542E-09  0.256747E-09  0.277422E-09  0.273923E-09  0.263570E-09  0.268555E-09
  0.284762E-09  0.285531E-09  0.263723E-09  0.241200E-09  0.236707E-09  0.245523E-09
  0.251477E-09  0.245613E-09  0.232262E-09  0.224724E-09  0.232975E-09  0.250080E-09
  0.257165E-09  0.248329E-09  0.241504E-09  0.254097E-09  0.276613E-09  0.284834E-09
  0.273047E-09  0.260119E-09  0.261976E-09  0.271568E-09  0.272018E-09  0.260288E-09
  0.249899E-09  0.252539E-09  0.264308E-09  0.274093E-09  0.277813E-09  0.276882E-09
  0.270436E-09  0.258697E-09  0.249737E-09  0.253159E-09  0.266060E-09  0.273525E-09
  0.267594E-09  0.259257E-09  0.264344E-09  0.279868E-09  0.284504E-09  0.267562E-09
  0.246175E-09  0.242520E-09  0.253368E-09  0.256440E-09  0.242827E-09  0.227574E-09
  0.226723E-09  0.238449E-09  0.249541E-09  0.249886E-09  0.240877E-09  0.236126E-09
  0.249424E-09  0.275084E-09  0.288564E-09  0.278154E-09  0.263846E-09  0.267062E-09
  0.287105E-09  0.294724E-09  0.278351E-09  0.264205E-09  0.273340E-09  0.288592E-09
  0.283437E-09  0.260158E-09  0.241882E-09  0.242800E-09  0.256650E-09  0.265013E-09
  0.254902E-09  0.233423E-09  0.221267E-09  0.227772E-09  0.240561E-09  0.244271E-09
  0.239645E-09  0.239089E-09  0.249492E-09  0.263846E-09  0.269132E-09  0.262827E-09
  0.258909E-09  0.268826E-09  0.281427E-09  0.277230E-09  0.258888E-09  0.248942E-09
  0.255960E-09  0.264561E-09  0.264176E-09  0.262812E-09  0.265043E-09  0.261641E-09
  0.251572E-09  0.251079E-09  0.267098E-09  0.281427E-09  0.276861E-09  0.262891E-09
  0.259115E-09  0.266258E-09  0.268769E-09  0.258373E-09  0.243823E-09  0.238038E-09
  0.242080E-09  0.244389E-09  0.235532E-09  0.222978E-09  0.224304E-09  0.243080E-09
  0.261829E-09  0.263244E-09  0.249886E-09  0.239753E-09  0.247860E-09  0.271343E-09
  0.289030E-09  0.283452E-09  0.266788E-09  0.267679E-09  0.277839E-09  0.303359E-09
  0.295177E-09  0.264480E-09  0.250133E-09  0.262712E-09  0.276377E-09  0.269796E-09
  0.249647E-09  0.236066E-09  0.240887E-09  0.256308E-09  0.261277E-09  0.246376E-09
  0.227169E-09  0.223440E-09  0.234750E-09  0.247613E-09  0.253863E-09  0.252408E-09
  0.247283E-09  0.248221E-09  0.259204E-09  0.268135E-09  0.265449E-09  0.263825E-09
  0.275486E-09  0.285691E-09  0.275910E-09  0.257455E-09  0.253033E-09  0.258489E-09
  0.255229E-09  0.246998E-09  0.249765E-09  0.257989E-09  0.256308E-09  0.252843E-09
  0.264782E-09  0.282453E-09  0.282735E-09  0.268845E-09  0.263073E-09  0.267546E-09
  0.265439E-09  0.253794E-09  0.246417E-09  0.249321E-09  0.254123E-09  0.252518E-09
  0.242770E-09  0.228767E-09  0.222501E-09  0.234416E-09  0.254963E-09  0.261829E-09
  0.249541E-09  0.236269E-09  0.239843E-09  0.258908E-09  0.275555E-09  0.272516E-09
  0.255277E-09  0.252420E-09  0.260923E-09  0.298651E-09  0.311141E-09  0.282747E-09
  0.248557E-09  0.244241E-09  0.262515E-09  0.272899E-09  0.261851E-09  0.240482E-09
  0.227773E-09  0.232098E-09  0.241887E-09  0.240342E-09  0.229908E-09  0.227995E-09
  0.240388E-09  0.257087E-09  0.270099E-09  0.274898E-09  0.265570E-09  0.248923E-09
  0.246578E-09  0.263480E-09  0.276007E-09  0.271293E-09  0.267529E-09  0.275623E-09
  0.277617E-09  0.262906E-09  0.250460E-09  0.253595E-09  0.256941E-09  0.249562E-09
  0.245764E-09  0.253339E-09  0.256756E-09  0.250951E-09  0.254148E-09  0.270517E-09
  0.278696E-09  0.271138E-09  0.267515E-09  0.274690E-09  0.272538E-09  0.254836E-09
  0.244619E-09  0.255589E-09  0.271599E-09  0.274634E-09  0.265371E-09  0.250093E-09
  0.233792E-09  0.226846E-09  0.234416E-09  0.243080E-09  0.238449E-09  0.228343E-09
  0.230979E-09  0.249559E-09  0.269034E-09  0.271072E-09  0.253906E-09  0.241818E-09
  0.254872E-09  0.285259E-09  0.313870E-09  0.304658E-09  0.269575E-09  0.250892E-09
  0.263174E-09  0.281747E-09  0.281084E-09  0.260684E-09  0.236815E-09  0.224691E-09
  0.225200E-09  0.226270E-09  0.222710E-09  0.225473E-09  0.242366E-09  0.263518E-09
  0.277236E-09  0.282122E-09  0.275107E-09  0.253545E-09  0.234460E-09  0.240903E-09
  0.264210E-09  0.273843E-09  0.265634E-09  0.261035E-09  0.263106E-09  0.255322E-09
  0.240495E-09  0.239083E-09  0.250538E-09  0.255902E-09  0.253301E-09  0.254386E-09
  0.254934E-09  0.245226E-09  0.237445E-09  0.246460E-09  0.260351E-09  0.262372E-09
  0.261564E-09  0.270106E-09  0.272589E-09  0.253992E-09  0.234448E-09  0.240463E-09
  0.264220E-09  0.280305E-09  0.281246E-09  0.272497E-09  0.255002E-09  0.233792E-09
  0.222501E-09  0.224304E-09  0.226723E-09  0.224275E-09  0.227911E-09  0.246053E-09
  0.270806E-09  0.284277E-09  0.275003E-09  0.255044E-09  0.261054E-09  0.268354E-09
  0.293270E-09  0.302062E-09  0.282259E-09  0.261571E-09  0.266385E-09  0.286619E-09
  0.294825E-09  0.280995E-09  0.256678E-09  0.237758E-09  0.230831E-09  0.229549E-09
  0.225464E-09  0.223659E-09  0.236478E-09  0.260770E-09  0.278098E-09  0.278959E-09
  0.267807E-09  0.248236E-09  0.225824E-09  0.217687E-09  0.233069E-09  0.253411E-09
  0.257594E-09  0.251713E-09  0.249567E-09  0.245288E-09  0.231464E-09  0.222278E-09
  0.230593E-09  0.244514E-09  0.249624E-09  0.249610E-09  0.248374E-09  0.238913E-09
  0.225066E-09  0.224431E-09  0.238071E-09  0.248197E-09  0.249950E-09  0.254323E-09
  0.258166E-09  0.245943E-09  0.224131E-09  0.218234E-09  0.235048E-09  0.257820E-09
  0.273804E-09  0.280366E-09  0.272497E-09  0.250093E-09  0.228767E-09  0.222978E-09
  0.227574E-09  0.230360E-09  0.232634E-09  0.244382E-09  0.267077E-09  0.289004E-09
  0.293861E-09  0.277827E-09  0.265979E-09  0.255559E-09  0.262871E-09  0.273796E-09
  0.270124E-09  0.257926E-09  0.257985E-09  0.274030E-09  0.288041E-09  0.284740E-09
  0.267670E-09  0.251040E-09  0.244838E-09  0.247216E-09  0.246986E-09  0.239151E-09
  0.236304E-09  0.251654E-09  0.274630E-09  0.281143E-09  0.264925E-09  0.240724E-09
  0.221589E-09  0.212188E-09  0.216649E-09  0.232209E-09  0.244938E-09  0.247294E-09
  0.245911E-09  0.243699E-09  0.234165E-09  0.220966E-09  0.218566E-09  0.227238E-09
  0.233221E-09  0.233073E-09  0.233275E-09  0.231429E-09  0.222851E-09  0.217688E-09
  0.226167E-09  0.239348E-09  0.245160E-09  0.246457E-09  0.247354E-09  0.240806E-09
  0.224979E-09  0.212958E-09  0.214968E-09  0.229104E-09  0.251121E-09  0.273804E-09
  0.281246E-09  0.265371E-09  0.242770E-09  0.235532E-09  0.242827E-09  0.248133E-09
  0.245892E-09  0.246011E-09  0.257182E-09  0.275717E-09  0.288257E-09  0.283435E-09
  0.265992E-09  0.255946E-09  0.252599E-09  0.254874E-09  0.256001E-09  0.253620E-09
  0.253225E-09  0.260078E-09  0.270847E-09  0.276096E-09  0.270735E-09  0.260118E-09
  0.254649E-09  0.259530E-09  0.267522E-09  0.264350E-09  0.249922E-09  0.244969E-09
  0.261906E-09  0.280677E-09  0.273514E-09  0.244463E-09  0.221008E-09  0.216271E-09
  0.223990E-09  0.237269E-09  0.250225E-09  0.255148E-09  0.251880E-09  0.247435E-09
  0.242646E-09  0.234480E-09  0.228337E-09  0.229197E-09  0.229830E-09  0.225075E-09
  0.222818E-09  0.227348E-09  0.230141E-09  0.228149E-09  0.230206E-09  0.238339E-09
  0.245093E-09  0.249267E-09  0.253892E-09  0.254325E-09  0.245230E-09  0.231255E-09
  0.219882E-09  0.216446E-09  0.229104E-09  0.257820E-09  0.280305E-09  0.274634E-09
  0.252518E-09  0.244389E-09  0.256440E-09  0.267733E-09  0.264801E-09  0.256302E-09
  0.255674E-09  0.264643E-09  0.274175E-09  0.274859E-09  0.270351E-09  0.269645E-09
  0.272061E-09  0.271973E-09  0.269956E-09  0.270657E-09  0.272491E-09  0.271284E-09
  0.269625E-09  0.272152E-09  0.275567E-09  0.273602E-09  0.267855E-09  0.266229E-09
  0.271984E-09  0.275497E-09  0.264383E-09  0.246215E-09  0.244570E-09  0.262860E-09
  0.272321E-09  0.252788E-09  0.223648E-09  0.214132E-09  0.227660E-09  0.251154E-09
  0.272350E-09  0.279245E-09  0.267435E-09  0.250298E-09  0.243139E-09  0.244161E-09
  0.245703E-09  0.247733E-09  0.248096E-09  0.241238E-09  0.233372E-09  0.235972E-09
  0.245021E-09  0.248577E-09  0.246813E-09  0.245283E-09  0.243448E-09  0.244766E-09
  0.257206E-09  0.274479E-09  0.278737E-09  0.264330E-09  0.240793E-09  0.219882E-09
  0.214968E-09  0.235048E-09  0.264220E-09  0.271599E-09  0.254123E-09  0.242080E-09
  0.253368E-09  0.271257E-09  0.275513E-09  0.269092E-09  0.265923E-09  0.270325E-09
  0.275355E-09  0.274503E-09  0.277293E-09  0.281699E-09  0.295131E-09  0.304444E-09
  0.303301E-09  0.301732E-09  0.304612E-09  0.301831E-09  0.289164E-09  0.278493E-09
  0.278541E-09  0.282507E-09  0.281252E-09  0.274886E-09  0.269441E-09  0.267925E-09
  0.263974E-09  0.251052E-09  0.238485E-09  0.241695E-09  0.254039E-09  0.251499E-09
  0.230219E-09  0.213088E-09  0.218198E-09  0.244443E-09  0.278801E-09  0.298594E-09
  0.285407E-09  0.252255E-09  0.233269E-09  0.239326E-09  0.252378E-09  0.260559E-09
  0.265536E-09  0.264155E-09  0.255512E-09  0.252151E-09  0.259630E-09  0.265945E-09
  0.263910E-09  0.257833E-09  0.247357E-09  0.234604E-09  0.238167E-09  0.266994E-09
  0.295406E-09  0.293560E-09  0.264330E-09  0.231255E-09  0.212958E-09  0.218234E-09
  0.240463E-09  0.255589E-09  0.249321E-09  0.238039E-09  0.242520E-09  0.257613E-09
  0.266822E-09  0.268505E-09  0.271408E-09  0.278028E-09  0.282802E-09  0.281112E-09
  0.271272E-09  0.276812E-09  0.293858E-09  0.311779E-09  0.316815E-09  0.313675E-09
  0.315063E-09  0.316433E-09  0.305174E-09  0.285577E-09  0.273045E-09  0.271905E-09
  0.274940E-09  0.274999E-09  0.268718E-09  0.259370E-09  0.254411E-09  0.253458E-09
  0.249618E-09  0.244382E-09  0.244629E-09  0.246562E-09  0.240990E-09  0.229479E-09
  0.222496E-09  0.231004E-09  0.259324E-09  0.290088E-09  0.289801E-09  0.253773E-09
  0.222711E-09  0.227149E-09  0.248564E-09  0.260476E-09  0.265618E-09  0.270227E-09
  0.266926E-09  0.259710E-09  0.262368E-09  0.269679E-09  0.268776E-09  0.263598E-09
  0.257066E-09  0.239635E-09  0.221171E-09  0.232532E-09  0.271912E-09  0.295406E-09
  0.278737E-09  0.245230E-09  0.224978E-09  0.224131E-09  0.234448E-09  0.244619E-09
  0.246417E-09  0.243823E-09  0.246175E-09  0.251764E-09  0.253892E-09  0.255849E-09
  0.263351E-09  0.272323E-09  0.275806E-09  0.273624E-09  0.252967E-09  0.260396E-09
  0.275850E-09  0.291486E-09  0.296633E-09  0.291162E-09  0.288534E-09  0.294172E-09
  0.296177E-09  0.285472E-09  0.268488E-09  0.255890E-09  0.253179E-09  0.259917E-09
  0.266743E-09  0.263395E-09  0.255783E-09  0.258065E-09  0.268095E-09  0.271049E-09
  0.263425E-09  0.255341E-09  0.253934E-09  0.255507E-09  0.251289E-09  0.241933E-09
  0.243873E-09  0.264145E-09  0.275884E-09  0.253156E-09  0.220465E-09  0.219749E-09
  0.243814E-09  0.257112E-09  0.257988E-09  0.264401E-09  0.268697E-09  0.260136E-09
  0.255793E-09  0.264930E-09  0.268478E-09  0.260842E-09  0.257745E-09  0.253954E-09
  0.233018E-09  0.215184E-09  0.232532E-09  0.266994E-09  0.274479E-09  0.254325E-09
  0.240806E-09  0.245943E-09  0.253992E-09  0.254836E-09  0.253794E-09  0.258373E-09
  0.267562E-09  0.271255E-09  0.263655E-09  0.255409E-09  0.258604E-09  0.266341E-09
  0.264867E-09  0.256272E-09  0.248779E-09  0.254585E-09  0.269495E-09  0.279129E-09
  0.275602E-09  0.261632E-09  0.250504E-09  0.254076E-09  0.268437E-09  0.278876E-09
  0.276195E-09  0.262745E-09  0.250046E-09  0.251595E-09  0.266825E-09  0.277887E-09
  0.275404E-09  0.273595E-09  0.284687E-09  0.296853E-09  0.293179E-09  0.276837E-09
  0.265537E-09  0.268466E-09  0.274628E-09  0.267332E-09  0.251243E-09  0.248299E-09
  0.257514E-09  0.251233E-09  0.228188E-09  0.222871E-09  0.242865E-09  0.256102E-09
  0.254843E-09  0.264301E-09  0.280656E-09  0.274943E-09  0.258148E-09  0.264252E-09
  0.280974E-09  0.275026E-09  0.258021E-09  0.255717E-09  0.253098E-09  0.233018E-09
  0.221171E-09  0.238167E-09  0.257206E-09  0.253892E-09  0.247354E-09  0.258166E-09
  0.272589E-09  0.272538E-09  0.265439E-09  0.268769E-09  0.284504E-09  0.297156E-09
  0.292842E-09  0.278452E-09  0.272932E-09  0.277717E-09  0.275088E-09  0.259765E-09
  0.272829E-09  0.270408E-09  0.281900E-09  0.290204E-09  0.282121E-09  0.260168E-09
  0.238690E-09  0.232872E-09  0.246976E-09  0.270685E-09  0.287661E-09  0.287927E-09
  0.276032E-09  0.269150E-09  0.278599E-09  0.293785E-09  0.297721E-09  0.293512E-09
  0.296371E-09  0.305646E-09  0.305933E-09  0.291091E-09  0.272466E-09  0.265309E-09
  0.271226E-09  0.274705E-09  0.263449E-09  0.248888E-09  0.247241E-09  0.248952E-09
  0.239810E-09  0.234303E-09  0.246215E-09  0.256377E-09  0.254697E-09  0.268447E-09
  0.301828E-09  0.309438E-09  0.279161E-09  0.265957E-09  0.294247E-09  0.312195E-09
  0.287581E-09  0.259028E-09  0.255717E-09  0.253954E-09  0.239635E-09  0.234604E-09
  0.244766E-09  0.249267E-09  0.246457E-09  0.254323E-09  0.270106E-09  0.274690E-09
  0.267546E-09  0.266258E-09  0.279868E-09  0.299071E-09  0.307968E-09  0.301887E-09
  0.293648E-09  0.295082E-09  0.297825E-09  0.288103E-09  0.300432E-09  0.293397E-09
  0.294600E-09  0.299897E-09  0.296193E-09  0.278785E-09  0.256341E-09  0.242836E-09
  0.246917E-09  0.265885E-09  0.287522E-09  0.299116E-09  0.297637E-09  0.292851E-09
  0.295793E-09  0.303360E-09  0.304071E-09  0.298101E-09  0.296321E-09  0.299684E-09
  0.297640E-09  0.286014E-09  0.271110E-09  0.260850E-09  0.260009E-09  0.265740E-09
  0.266301E-09  0.256238E-09  0.246601E-09  0.245084E-09  0.244444E-09  0.243982E-09
  0.251633E-09  0.258855E-09  0.255917E-09  0.266354E-09  0.307445E-09  0.334817E-09
  0.304265E-09  0.260914E-09  0.275364E-09  0.323808E-09  0.329128E-09  0.287581E-09
  0.258021E-09  0.257745E-09  0.257066E-09  0.247357E-09  0.243448E-09  0.245093E-09
  0.245160E-09  0.249950E-09  0.261564E-09  0.267515E-09  0.263073E-09  0.259115E-09
  0.264344E-09  0.277473E-09  0.292108E-09  0.299936E-09  0.298269E-09  0.295963E-09
  0.300599E-09  0.305044E-09  0.301551E-09  0.303723E-09  0.296875E-09  0.290790E-09
  0.287118E-09  0.280685E-09  0.269853E-09  0.259775E-09  0.257148E-09  0.263771E-09
  0.274868E-09  0.283727E-09  0.288267E-09  0.292687E-09  0.300155E-09  0.304277E-09
  0.296724E-09  0.283565E-09  0.279573E-09  0.284453E-09  0.282844E-09  0.270717E-09
  0.260227E-09  0.258051E-09  0.260399E-09  0.265359E-09  0.270915E-09  0.268600E-09
  0.255953E-09  0.243208E-09  0.237986E-09  0.240393E-09  0.250577E-09  0.261809E-09
  0.262319E-09  0.263256E-09  0.290045E-09  0.323889E-09  0.310232E-09  0.254477E-09
  0.233892E-09  0.279015E-09  0.323808E-09  0.312195E-09  0.275026E-09  0.260842E-09
  0.263598E-09  0.257833E-09  0.245283E-09  0.238339E-09  0.239348E-09  0.248197E-09
  0.262372E-09  0.271138E-09  0.268845E-09  0.262891E-09  0.259257E-09  0.258267E-09
  0.263835E-09  0.276628E-09  0.285180E-09  0.282248E-09  0.279489E-09  0.288760E-09
  0.282240E-09  0.299959E-09  0.298233E-09  0.282172E-09  0.267271E-09  0.260428E-09
  0.258525E-09  0.257306E-09  0.256291E-09  0.256673E-09  0.257899E-09  0.258944E-09
  0.262230E-09  0.272632E-09  0.289698E-09  0.301429E-09  0.294065E-09  0.272821E-09
  0.260258E-09  0.265447E-09  0.270352E-09  0.259897E-09  0.246608E-09  0.248013E-09
  0.260447E-09  0.271983E-09  0.280181E-09  0.282817E-09  0.272123E-09  0.250019E-09
  0.230971E-09  0.226017E-09  0.236390E-09  0.255083E-09  0.267675E-09  0.268014E-09
  0.271941E-09  0.288734E-09  0.291353E-09  0.257772E-09  0.222814E-09  0.233892E-09
  0.275364E-09  0.294247E-09  0.280974E-09  0.268478E-09  0.268776E-09  0.263910E-09
  0.246813E-09  0.230206E-09  0.226167E-09  0.238071E-09  0.260351E-09  0.278696E-09
  0.282735E-09  0.276861E-09  0.267594E-09  0.254813E-09  0.245330E-09  0.251088E-09
  0.266019E-09  0.269950E-09  0.261736E-09  0.263054E-09  0.269163E-09  0.294003E-09
  0.304933E-09  0.292579E-09  0.268989E-09  0.250255E-09  0.242126E-09  0.240857E-09
  0.241197E-09  0.241199E-09  0.240930E-09  0.240909E-09  0.244431E-09  0.257066E-09
  0.279312E-09  0.300241E-09  0.303096E-09  0.283785E-09  0.260664E-09  0.254175E-09
  0.259250E-09  0.254840E-09  0.239510E-09  0.234055E-09  0.247408E-09  0.265895E-09
  0.277805E-09  0.283193E-09  0.279245E-09  0.260771E-09  0.235386E-09  0.219208E-09
  0.220453E-09  0.236503E-09  0.257364E-09  0.269295E-09  0.267725E-09  0.263705E-09
  0.265493E-09  0.265174E-09  0.257772E-09  0.254477E-09  0.260914E-09  0.265957E-09
  0.264252E-09  0.264930E-09  0.269679E-09  0.265945E-09  0.248577E-09  0.228149E-09
  0.217688E-09  0.224431E-09  0.246460E-09  0.270517E-09  0.282453E-09  0.281427E-09
  0.273525E-09  0.258454E-09  0.239860E-09  0.233729E-09  0.246040E-09  0.258805E-09
  0.257179E-09  0.254352E-09  0.266616E-09  0.290455E-09  0.308242E-09  0.307419E-09
  0.289400E-09  0.265061E-09  0.245119E-09  0.233580E-09  0.228137E-09  0.225881E-09
  0.226424E-09  0.229952E-09  0.237663E-09  0.252783E-09  0.275528E-09  0.298565E-09
  0.310188E-09  0.302483E-09  0.279944E-09  0.258998E-09  0.250899E-09  0.247932E-09
  0.238451E-09  0.229325E-09  0.235031E-09  0.251698E-09  0.263578E-09  0.266937E-09
  0.266897E-09  0.261279E-09  0.246790E-09  0.230848E-09  0.222988E-09  0.225079E-09
  0.235991E-09  0.252088E-09  0.262506E-09  0.259714E-09  0.254614E-09  0.265493E-09
  0.291353E-09  0.310232E-09  0.304265E-09  0.279161E-09  0.258148E-09  0.255793E-09
  0.262368E-09  0.259630E-09  0.245021E-09  0.230141E-09  0.222851E-09  0.225066E-09
  0.237445E-09  0.254148E-09  0.264782E-09  0.267098E-09  0.266060E-09  0.259710E-09
  0.244157E-09  0.230181E-09  0.231700E-09  0.243213E-09  0.249736E-09  0.252952E-09
  0.259217E-09  0.282417E-09  0.300412E-09  0.306369E-09  0.300259E-09  0.283468E-09
  0.261163E-09  0.241484E-09  0.228395E-09  0.221008E-09  0.219240E-09  0.223533E-09
  0.233269E-09  0.249284E-09  0.271014E-09  0.291818E-09  0.304187E-09  0.305344E-09
  0.294090E-09  0.272336E-09  0.250896E-09  0.240236E-09  0.237380E-09  0.235640E-09
  0.239073E-09  0.250585E-09  0.259120E-09  0.256609E-09  0.251508E-09  0.251857E-09
  0.252570E-09  0.248534E-09  0.242621E-09  0.235974E-09  0.228757E-09  0.229359E-09
  0.242958E-09  0.257096E-09  0.259714E-09  0.263705E-09  0.288734E-09  0.323889E-09
  0.334817E-09  0.309438E-09  0.274943E-09  0.260136E-09  0.259710E-09  0.252151E-09
  0.235972E-09  0.227348E-09  0.231429E-09  0.238913E-09  0.245226E-09  0.250951E-09
  0.252843E-09  0.251079E-09  0.253159E-09  0.258892E-09  0.256698E-09  0.244846E-09
  0.236057E-09  0.235850E-09  0.238255E-09  0.243536E-09  0.246886E-09  0.267390E-09
  0.284525E-09  0.292228E-09  0.294177E-09  0.288897E-09  0.273359E-09  0.253747E-09
  0.238408E-09  0.228350E-09  0.223110E-09  0.224605E-09  0.232064E-09  0.244290E-09
  0.262155E-09  0.281220E-09  0.292370E-09  0.293957E-09  0.290039E-09  0.278454E-09
  0.258081E-09  0.240721E-09  0.237654E-09  0.244473E-09  0.253229E-09  0.263533E-09
  0.270694E-09  0.265631E-09  0.253616E-09  0.249420E-09  0.253981E-09  0.256984E-09
  0.256112E-09  0.253153E-09  0.242732E-09  0.227042E-09  0.224633E-09  0.242958E-09
  0.262506E-09  0.267725E-09  0.271941E-09  0.290045E-09  0.307445E-09  0.301828E-09
  0.280656E-09  0.268697E-09  0.266926E-09  0.255512E-09  0.233372E-09  0.222818E-09
  0.233275E-09  0.248374E-09  0.254934E-09  0.256756E-09  0.256308E-09  0.251573E-09
  0.249737E-09  0.258793E-09  0.269593E-09  0.268503E-09  0.258521E-09  0.248869E-09
  0.240803E-09  0.237295E-09  0.243286E-09  0.253434E-09  0.266690E-09  0.275024E-09
  0.281837E-09  0.286283E-09  0.280179E-09  0.265303E-09  0.252606E-09  0.244935E-09
  0.238979E-09  0.237090E-09  0.241193E-09  0.247840E-09  0.257401E-09  0.271995E-09
  0.284194E-09  0.285170E-09  0.278995E-09  0.272148E-09  0.261525E-09  0.247872E-09
  0.242658E-09  0.250455E-09  0.262878E-09  0.273877E-09  0.281342E-09  0.278606E-09
  0.266089E-09  0.258116E-09  0.260455E-09  0.261191E-09  0.255456E-09  0.253376E-09
  0.254001E-09  0.243318E-09  0.227042E-09  0.229359E-09  0.252088E-09  0.269295E-09
  0.268014E-09  0.263256E-09  0.266354E-09  0.268447E-09  0.264301E-09  0.264401E-09
  0.270227E-09  0.264155E-09  0.241238E-09  0.225075E-09  0.233073E-09  0.249610E-09
  0.254386E-09  0.253339E-09  0.257989E-09  0.261641E-09  0.258697E-09  0.260308E-09
  0.272155E-09  0.281337E-09  0.278571E-09  0.268990E-09  0.257306E-09  0.245960E-09
  0.248424E-09  0.247053E-09  0.251365E-09  0.256447E-09  0.264762E-09  0.276505E-09
  0.281050E-09  0.274219E-09  0.266926E-09  0.265292E-09  0.263012E-09  0.259327E-09
  0.260534E-09  0.264320E-09  0.265620E-09  0.269275E-09  0.277755E-09  0.280467E-09
  0.271557E-09  0.260587E-09  0.254333E-09  0.249407E-09  0.246613E-09  0.251397E-09
  0.261999E-09  0.272603E-09  0.280426E-09  0.280657E-09  0.270910E-09  0.263099E-09
  0.267260E-09  0.270416E-09  0.258706E-09  0.245821E-09  0.248752E-09  0.254001E-09
  0.242732E-09  0.228757E-09  0.235991E-09  0.257364E-09  0.267675E-09  0.262319E-09
  0.255917E-09  0.254697E-09  0.254843E-09  0.257988E-09  0.265618E-09  0.265536E-09
  0.248096E-09  0.229830E-09  0.233221E-09  0.249624E-09  0.253301E-09  0.245764E-09
  0.249765E-09  0.265043E-09  0.270436E-09  0.264483E-09  0.265382E-09  0.275882E-09
  0.281672E-09  0.277367E-09  0.268126E-09  0.257229E-09  0.251151E-09  0.246809E-09
  0.244620E-09  0.242961E-09  0.245705E-09  0.257131E-09  0.269370E-09  0.272735E-09
  0.272951E-09  0.278373E-09  0.282645E-09  0.279634E-09  0.277674E-09  0.281404E-09
  0.281634E-09  0.275539E-09  0.272323E-09  0.272167E-09  0.264757E-09  0.251319E-09
  0.243586E-09  0.243676E-09  0.245559E-09  0.248191E-09  0.253710E-09  0.261930E-09
  0.271168E-09  0.275870E-09  0.269485E-09  0.259669E-09  0.263189E-09  0.275472E-09
  0.272947E-09  0.254506E-09  0.245821E-09  0.253376E-09  0.253153E-09  0.235974E-09
  0.225079E-09  0.236502E-09  0.255083E-09  0.261809E-09  0.258855E-09  0.256377E-09
  0.256102E-09  0.257112E-09  0.260476E-09  0.260559E-09  0.247733E-09  0.229197E-09
  0.227238E-09  0.244514E-09  0.255902E-09  0.249562E-09  0.246998E-09  0.262812E-09
  0.276882E-09  0.270847E-09  0.259835E-09  0.263227E-09  0.273499E-09  0.274908E-09
  0.267366E-09  0.258336E-09  0.249384E-09  0.249766E-09  0.249949E-09  0.246589E-09
  0.242341E-09  0.245102E-09  0.255271E-09  0.263942E-09  0.269490E-09  0.278180E-09
  0.286328E-09  0.284440E-09  0.278135E-09  0.280283E-09  0.286533E-09  0.283739E-09
  0.273976E-09  0.266934E-09  0.260700E-09  0.250496E-09  0.242757E-09  0.243821E-09