
     Program PWSCF v.6.4.1 starts on  8Jan2025 at 20: 2: 0 

     This program is part of the open-source Quantum ESPRESSO suite
     for quantum simulation of materials; please cite
         "P. Giannozzi et al., J. Phys.:Condens. Matter 21 395502 (2009);
         "P. Giannozzi et al., J. Phys.:Condens. Matter 29 465901 (2017);
          URL http://www.quantum-espresso.org", 
     in publications or presentations arising from this work. More details at
     http://www.quantum-espresso.org/quote

     Parallel version (MPI), running on     2 processors

     MPI processes distributed on     1 nodes
     R & G space division:  proc/nbgrp/npool/nimage =       2
     Waiting for input...
     Reading input from standard input

     Current dimensions of program PWSCF are:
     Max number of different atomic species (ntypx) = 10
     Max number of k-points (npk) =  40000
     Max angular momentum in pseudopotentials (lmaxx) =  3

     Atomic positions and unit cell read from directory:
     ./out/aiida.save/


     Subspace diagonalization in iterative solution of the eigenvalue problem:
     a serial algorithm will be used

     Message from routine setup:
     DEPRECATED: symmetry with ibrav=0, use correct ibrav instead

     Parallelization info
     --------------------
     sticks:   dense  smooth     PW     G-vecs:    dense   smooth      PW
     Min        1025     513    147               125985    44611    6818
     Max        1028     514    148               125986    44614    6819
     Sum        2053    1027    295               251971    89225   13637



     bravais-lattice index     =            0
     lattice parameter (alat)  =      11.0738  a.u.
     unit-cell volume          =    4013.7698 (a.u.)^3
     number of atoms/cell      =            4
     number of atomic types    =            1
     number of electrons       =        16.00
     number of Kohn-Sham states=           12
     kinetic-energy cutoff     =      30.0000  Ry
     charge density cutoff     =     240.0000  Ry
     Exchange-correlation      = PBE ( 1  4  3  4 0 0)

     celldm(1)=  11.073795  celldm(2)=   0.000000  celldm(3)=   0.000000
     celldm(4)=   0.000000  celldm(5)=   0.000000  celldm(6)=   0.000000

     crystal axes: (cart. coord. in units of alat)
               a(1) = (   1.000000   0.000000   0.000000 )  
               a(2) = (  -0.500000   0.866025   0.000000 )  
               a(3) = (   0.000000   0.000000   3.412969 )  

     reciprocal axes: (cart. coord. in units 2 pi/alat)
               b(1) = (  1.000000  0.577350 -0.000000 )  
               b(2) = (  0.000000  1.154701  0.000000 )  
               b(3) = (  0.000000 -0.000000  0.293000 )  


     PseudoPot. # 1 for Si read from file:
     ../../pseudo/Si.pbe.upf
     MD5 check sum: 3f156eda2279325da2083dedf8f436a5
     Pseudo is Norm-conserving + core correction, Zval =  4.0
     Generated using ONCVPSP code by D. R. Hamann
     Using radial grid of 1510 points,  6 beta functions with: 
                l(1) =   0
                l(2) =   0
                l(3) =   1
                l(4) =   1
                l(5) =   2
                l(6) =   2

     atomic species   valence    mass     pseudopotential
        Si             4.00    28.08550     Si( 1.00)

      2 Sym. Ops. (no inversion) found


                                    s                        frac. trans.

      isym =  1     identity                                     

 cryst.   s( 1) = (     1          0          0      )
                  (     0          1          0      )
                  (     0          0          1      )

 cart.    s( 1) = (  1.0000000  0.0000000  0.0000000 )
                  (  0.0000000  1.0000000  0.0000000 )
                  (  0.0000000  0.0000000  1.0000000 )


      isym =  2     inv. 180 deg rotation - cryst. axis [1,1,0]  

 cryst.   s( 2) = (     0         -1          0      )
                  (    -1          0          0      )
                  (     0          0          1      )

 cart.    s( 2) = (  0.5000000 -0.8660254  0.0000000 )
                  ( -0.8660254 -0.5000000  0.0000000 )
                  (  0.0000000  0.0000000  1.0000000 )


   Cartesian axes

     site n.     atom                  positions (alat units)
         1           Si  tau(   1) = (   0.2500000   0.4330127   1.7064846  )
         2           Si  tau(   2) = (   0.4420000   0.1004589   1.7064846  )
         3           Si  tau(   3) = (   0.6340000   0.4330127   1.7064846  )
         4           Si  tau(   4) = (  -0.0582500   0.6109809   1.8839590  )

   Crystallographic axes

     site n.     atom                  positions (cryst. coord.)
         1           Si  tau(   1) = (  0.5000000  0.5000000  0.5000000  )
         2           Si  tau(   2) = (  0.5000000  0.1160000  0.5000000  )
         3           Si  tau(   3) = (  0.8840000  0.5000000  0.5000000  )
         4           Si  tau(   4) = (  0.2945000  0.7055000  0.5520000  )

     number of k points=    91  Marzari-Vanderbilt smearing, width (Ry)=  0.0147
                       cart. coord. in units 2pi/alat
        k(    1) = (   0.0000000   0.0000000   0.0000000), wk =   0.0219780
        k(    2) = (   0.0000000   0.0192450   0.0000000), wk =   0.0219780
        k(    3) = (   0.0000000   0.0384900   0.0000000), wk =   0.0219780
        k(    4) = (   0.0000000   0.0577350   0.0000000), wk =   0.0219780
        k(    5) = (   0.0000000   0.0769800   0.0000000), wk =   0.0219780
        k(    6) = (   0.0000000   0.0962250   0.0000000), wk =   0.0219780
        k(    7) = (   0.0000000   0.1154701   0.0000000), wk =   0.0219780
        k(    8) = (   0.0000000   0.1347151   0.0000000), wk =   0.0219780
        k(    9) = (   0.0000000   0.1539601   0.0000000), wk =   0.0219780
        k(   10) = (   0.0000000   0.1732051   0.0000000), wk =   0.0219780
        k(   11) = (   0.0000000   0.1924501   0.0000000), wk =   0.0219780
        k(   12) = (   0.0000000   0.2116951   0.0000000), wk =   0.0219780
        k(   13) = (   0.0000000   0.2309401   0.0000000), wk =   0.0219780
        k(   14) = (   0.0000000   0.2501851   0.0000000), wk =   0.0219780
        k(   15) = (   0.0000000   0.2694301   0.0000000), wk =   0.0219780
        k(   16) = (   0.0000000   0.2886751   0.0000000), wk =   0.0219780
        k(   17) = (   0.0000000   0.3079201   0.0000000), wk =   0.0219780
        k(   18) = (   0.0000000   0.3271652   0.0000000), wk =   0.0219780
        k(   19) = (   0.0000000   0.3464102   0.0000000), wk =   0.0219780
        k(   20) = (   0.0000000   0.3656552   0.0000000), wk =   0.0219780
        k(   21) = (   0.0000000   0.3849002   0.0000000), wk =   0.0219780
        k(   22) = (   0.0000000   0.4041452   0.0000000), wk =   0.0219780
        k(   23) = (   0.0000000   0.4233902   0.0000000), wk =   0.0219780
        k(   24) = (   0.0000000   0.4426352   0.0000000), wk =   0.0219780
        k(   25) = (   0.0000000   0.4618802   0.0000000), wk =   0.0219780
        k(   26) = (   0.0000000   0.4811252   0.0000000), wk =   0.0219780
        k(   27) = (   0.0000000   0.5003702   0.0000000), wk =   0.0219780
        k(   28) = (   0.0000000   0.5196152   0.0000000), wk =   0.0219780
        k(   29) = (   0.0000000   0.5388603   0.0000000), wk =   0.0219780
        k(   30) = (   0.0000000   0.5581053   0.0000000), wk =   0.0219780
        k(   31) = (   0.0000000   0.5773503   0.0000000), wk =   0.0219780
        k(   32) = (   0.0111100   0.5773483   0.0000000), wk =   0.0219780
        k(   33) = (   0.0222200   0.5773464   0.0000000), wk =   0.0219780
        k(   34) = (   0.0333300   0.5773445   0.0000000), wk =   0.0219780
        k(   35) = (   0.0444400   0.5773426   0.0000000), wk =   0.0219780
        k(   36) = (   0.0555500   0.5773406   0.0000000), wk =   0.0219780
        k(   37) = (   0.0666600   0.5773387   0.0000000), wk =   0.0219780
        k(   38) = (   0.0777700   0.5773368   0.0000000), wk =   0.0219780
        k(   39) = (   0.0888800   0.5773349   0.0000000), wk =   0.0219780
        k(   40) = (   0.0999900   0.5773329   0.0000000), wk =   0.0219780
        k(   41) = (   0.1111000   0.5773310   0.0000000), wk =   0.0219780
        k(   42) = (   0.1222100   0.5773291   0.0000000), wk =   0.0219780
        k(   43) = (   0.1333200   0.5773272   0.0000000), wk =   0.0219780
        k(   44) = (   0.1444300   0.5773253   0.0000000), wk =   0.0219780
        k(   45) = (   0.1555400   0.5773233   0.0000000), wk =   0.0219780
        k(   46) = (   0.1666500   0.5773214   0.0000000), wk =   0.0219780
        k(   47) = (   0.1777600   0.5773195   0.0000000), wk =   0.0219780
        k(   48) = (   0.1888700   0.5773176   0.0000000), wk =   0.0219780
        k(   49) = (   0.1999800   0.5773156   0.0000000), wk =   0.0219780
        k(   50) = (   0.2110900   0.5773137   0.0000000), wk =   0.0219780
        k(   51) = (   0.2222000   0.5773118   0.0000000), wk =   0.0219780
        k(   52) = (   0.2333100   0.5773099   0.0000000), wk =   0.0219780
        k(   53) = (   0.2444200   0.5773079   0.0000000), wk =   0.0219780
        k(   54) = (   0.2555300   0.5773060   0.0000000), wk =   0.0219780
        k(   55) = (   0.2666400   0.5773041   0.0000000), wk =   0.0219780
        k(   56) = (   0.2777500   0.5773022   0.0000000), wk =   0.0219780
        k(   57) = (   0.2888600   0.5773002   0.0000000), wk =   0.0219780
        k(   58) = (   0.2999700   0.5772983   0.0000000), wk =   0.0219780
        k(   59) = (   0.3110800   0.5772964   0.0000000), wk =   0.0219780
        k(   60) = (   0.3221900   0.5772945   0.0000000), wk =   0.0219780
        k(   61) = (   0.3333000   0.5772925   0.0000000), wk =   0.0219780
        k(   62) = (   0.3221900   0.5580494   0.0000000), wk =   0.0219780
        k(   63) = (   0.3110800   0.5388064   0.0000000), wk =   0.0219780
        k(   64) = (   0.2999700   0.5195633   0.0000000), wk =   0.0219780
        k(   65) = (   0.2888600   0.5003202   0.0000000), wk =   0.0219780
        k(   66) = (   0.2777500   0.4810771   0.0000000), wk =   0.0219780
        k(   67) = (   0.2666400   0.4618340   0.0000000), wk =   0.0219780
        k(   68) = (   0.2555300   0.4425909   0.0000000), wk =   0.0219780
        k(   69) = (   0.2444200   0.4233479   0.0000000), wk =   0.0219780
        k(   70) = (   0.2333100   0.4041048   0.0000000), wk =   0.0219780
        k(   71) = (   0.2222000   0.3848617   0.0000000), wk =   0.0219780
        k(   72) = (   0.2110900   0.3656186   0.0000000), wk =   0.0219780
        k(   73) = (   0.1999800   0.3463755   0.0000000), wk =   0.0219780
        k(   74) = (   0.1888700   0.3271324   0.0000000), wk =   0.0219780
        k(   75) = (   0.1777600   0.3078894   0.0000000), wk =   0.0219780
        k(   76) = (   0.1666500   0.2886463   0.0000000), wk =   0.0219780
        k(   77) = (   0.1555400   0.2694032   0.0000000), wk =   0.0219780
        k(   78) = (   0.1444300   0.2501601   0.0000000), wk =   0.0219780
        k(   79) = (   0.1333200   0.2309170   0.0000000), wk =   0.0219780
        k(   80) = (   0.1222100   0.2116739   0.0000000), wk =   0.0219780
        k(   81) = (   0.1111000   0.1924308   0.0000000), wk =   0.0219780
        k(   82) = (   0.0999900   0.1731878   0.0000000), wk =   0.0219780
        k(   83) = (   0.0888800   0.1539447   0.0000000), wk =   0.0219780
        k(   84) = (   0.0777700   0.1347016   0.0000000), wk =   0.0219780
        k(   85) = (   0.0666600   0.1154585   0.0000000), wk =   0.0219780
        k(   86) = (   0.0555500   0.0962154   0.0000000), wk =   0.0219780
        k(   87) = (   0.0444400   0.0769723   0.0000000), wk =   0.0219780
        k(   88) = (   0.0333300   0.0577293   0.0000000), wk =   0.0219780
        k(   89) = (   0.0222200   0.0384862   0.0000000), wk =   0.0219780
        k(   90) = (   0.0111100   0.0192431   0.0000000), wk =   0.0219780
        k(   91) = (   0.0000000   0.0000000   0.0000000), wk =   0.0219780

                       cryst. coord.
        k(    1) = (   0.0000000   0.0000000   0.0000000), wk =   0.0219780
        k(    2) = (   0.0000000   0.0166667   0.0000000), wk =   0.0219780
        k(    3) = (   0.0000000   0.0333333   0.0000000), wk =   0.0219780
        k(    4) = (   0.0000000   0.0500000   0.0000000), wk =   0.0219780
        k(    5) = (   0.0000000   0.0666667   0.0000000), wk =   0.0219780
        k(    6) = (   0.0000000   0.0833333   0.0000000), wk =   0.0219780
        k(    7) = (   0.0000000   0.1000000   0.0000000), wk =   0.0219780
        k(    8) = (   0.0000000   0.1166667   0.0000000), wk =   0.0219780
        k(    9) = (   0.0000000   0.1333333   0.0000000), wk =   0.0219780
        k(   10) = (   0.0000000   0.1500000   0.0000000), wk =   0.0219780
        k(   11) = (   0.0000000   0.1666667   0.0000000), wk =   0.0219780
        k(   12) = (   0.0000000   0.1833333   0.0000000), wk =   0.0219780
        k(   13) = (   0.0000000   0.2000000   0.0000000), wk =   0.0219780
        k(   14) = (   0.0000000   0.2166667   0.0000000), wk =   0.0219780
        k(   15) = (   0.0000000   0.2333333   0.0000000), wk =   0.0219780
        k(   16) = (   0.0000000   0.2500000   0.0000000), wk =   0.0219780
        k(   17) = (   0.0000000   0.2666667   0.0000000), wk =   0.0219780
        k(   18) = (   0.0000000   0.2833333   0.0000000), wk =   0.0219780
        k(   19) = (   0.0000000   0.3000000   0.0000000), wk =   0.0219780
        k(   20) = (   0.0000000   0.3166667   0.0000000), wk =   0.0219780
        k(   21) = (   0.0000000   0.3333333   0.0000000), wk =   0.0219780
        k(   22) = (   0.0000000   0.3500000   0.0000000), wk =   0.0219780
        k(   23) = (   0.0000000   0.3666667   0.0000000), wk =   0.0219780
        k(   24) = (   0.0000000   0.3833333   0.0000000), wk =   0.0219780
        k(   25) = (   0.0000000   0.4000000   0.0000000), wk =   0.0219780
        k(   26) = (   0.0000000   0.4166667   0.0000000), wk =   0.0219780
        k(   27) = (   0.0000000   0.4333333   0.0000000), wk =   0.0219780
        k(   28) = (   0.0000000   0.4500000   0.0000000), wk =   0.0219780
        k(   29) = (   0.0000000   0.4666667   0.0000000), wk =   0.0219780
        k(   30) = (   0.0000000   0.4833333   0.0000000), wk =   0.0219780
        k(   31) = (   0.0000000   0.5000000   0.0000000), wk =   0.0219780
        k(   32) = (   0.0111100   0.4944433   0.0000000), wk =   0.0219780
        k(   33) = (   0.0222200   0.4888867   0.0000000), wk =   0.0219780
        k(   34) = (   0.0333300   0.4833300   0.0000000), wk =   0.0219780
        k(   35) = (   0.0444400   0.4777733   0.0000000), wk =   0.0219780
        k(   36) = (   0.0555500   0.4722167   0.0000000), wk =   0.0219780
        k(   37) = (   0.0666600   0.4666600   0.0000000), wk =   0.0219780
        k(   38) = (   0.0777700   0.4611033   0.0000000), wk =   0.0219780
        k(   39) = (   0.0888800   0.4555467   0.0000000), wk =   0.0219780
        k(   40) = (   0.0999900   0.4499900   0.0000000), wk =   0.0219780
        k(   41) = (   0.1111000   0.4444333   0.0000000), wk =   0.0219780
        k(   42) = (   0.1222100   0.4388767   0.0000000), wk =   0.0219780
        k(   43) = (   0.1333200   0.4333200   0.0000000), wk =   0.0219780
        k(   44) = (   0.1444300   0.4277633   0.0000000), wk =   0.0219780
        k(   45) = (   0.1555400   0.4222067   0.0000000), wk =   0.0219780
        k(   46) = (   0.1666500   0.4166500   0.0000000), wk =   0.0219780
        k(   47) = (   0.1777600   0.4110933   0.0000000), wk =   0.0219780
        k(   48) = (   0.1888700   0.4055367   0.0000000), wk =   0.0219780
        k(   49) = (   0.1999800   0.3999800   0.0000000), wk =   0.0219780
        k(   50) = (   0.2110900   0.3944233   0.0000000), wk =   0.0219780
        k(   51) = (   0.2222000   0.3888667   0.0000000), wk =   0.0219780
        k(   52) = (   0.2333100   0.3833100   0.0000000), wk =   0.0219780
        k(   53) = (   0.2444200   0.3777533   0.0000000), wk =   0.0219780
        k(   54) = (   0.2555300   0.3721967   0.0000000), wk =   0.0219780
        k(   55) = (   0.2666400   0.3666400   0.0000000), wk =   0.0219780
        k(   56) = (   0.2777500   0.3610833   0.0000000), wk =   0.0219780
        k(   57) = (   0.2888600   0.3555267   0.0000000), wk =   0.0219780
        k(   58) = (   0.2999700   0.3499700   0.0000000), wk =   0.0219780
        k(   59) = (   0.3110800   0.3444133   0.0000000), wk =   0.0219780
        k(   60) = (   0.3221900   0.3388567   0.0000000), wk =   0.0219780
        k(   61) = (   0.3333000   0.3333000   0.0000000), wk =   0.0219780
        k(   62) = (   0.3221900   0.3221900   0.0000000), wk =   0.0219780
        k(   63) = (   0.3110800   0.3110800   0.0000000), wk =   0.0219780
        k(   64) = (   0.2999700   0.2999700   0.0000000), wk =   0.0219780
        k(   65) = (   0.2888600   0.2888600   0.0000000), wk =   0.0219780
        k(   66) = (   0.2777500   0.2777500   0.0000000), wk =   0.0219780
        k(   67) = (   0.2666400   0.2666400   0.0000000), wk =   0.0219780
        k(   68) = (   0.2555300   0.2555300   0.0000000), wk =   0.0219780
        k(   69) = (   0.2444200   0.2444200   0.0000000), wk =   0.0219780
        k(   70) = (   0.2333100   0.2333100   0.0000000), wk =   0.0219780
        k(   71) = (   0.2222000   0.2222000   0.0000000), wk =   0.0219780
        k(   72) = (   0.2110900   0.2110900   0.0000000), wk =   0.0219780
        k(   73) = (   0.1999800   0.1999800   0.0000000), wk =   0.0219780
        k(   74) = (   0.1888700   0.1888700   0.0000000), wk =   0.0219780
        k(   75) = (   0.1777600   0.1777600   0.0000000), wk =   0.0219780
        k(   76) = (   0.1666500   0.1666500   0.0000000), wk =   0.0219780
        k(   77) = (   0.1555400   0.1555400   0.0000000), wk =   0.0219780
        k(   78) = (   0.1444300   0.1444300   0.0000000), wk =   0.0219780
        k(   79) = (   0.1333200   0.1333200   0.0000000), wk =   0.0219780
        k(   80) = (   0.1222100   0.1222100   0.0000000), wk =   0.0219780
        k(   81) = (   0.1111000   0.1111000   0.0000000), wk =   0.0219780
        k(   82) = (   0.0999900   0.0999900   0.0000000), wk =   0.0219780
        k(   83) = (   0.0888800   0.0888800   0.0000000), wk =   0.0219780
        k(   84) = (   0.0777700   0.0777700   0.0000000), wk =   0.0219780
        k(   85) = (   0.0666600   0.0666600   0.0000000), wk =   0.0219780
        k(   86) = (   0.0555500   0.0555500   0.0000000), wk =   0.0219780
        k(   87) = (   0.0444400   0.0444400   0.0000000), wk =   0.0219780
        k(   88) = (   0.0333300   0.0333300   0.0000000), wk =   0.0219780
        k(   89) = (   0.0222200   0.0222200   0.0000000), wk =   0.0219780
        k(   90) = (   0.0111100   0.0111100   0.0000000), wk =   0.0219780
        k(   91) = (   0.0000000   0.0000000   0.0000000), wk =   0.0219780

     Dense  grid:   251971 G-vectors     FFT dimensions: (  60,  60, 192)

     Smooth grid:    89225 G-vectors     FFT dimensions: (  40,  40, 135)

     Dynamical RAM for                 wfc:       1.02 MB

     Dynamical RAM for     wfc (w. buffer):       1.02 MB

     Dynamical RAM for           str. fact:       1.92 MB

     Dynamical RAM for           local pot:       0.00 MB

     Dynamical RAM for          nlocal pot:       6.12 MB

     Dynamical RAM for                qrad:       2.19 MB

     Dynamical RAM for          rho,v,vnew:      13.68 MB

     Dynamical RAM for           G-vectors:       7.55 MB

     Dynamical RAM for          h,s,v(r/c):       0.11 MB

     Dynamical RAM for          <psi|beta>:       0.01 MB

     Dynamical RAM for                 psi:       4.08 MB

     Dynamical RAM for                hpsi:       4.08 MB

     Dynamical RAM for      wfcinit/wfcrot:       2.72 MB

     Estimated static dynamical RAM per process >      49.50 MB

     Estimated max dynamical RAM per process >      57.78 MB

     Estimated total dynamical RAM >     115.56 MB

     The potential is recalculated from file :
     ./out/aiida.save/charge-density

     Starting wfcs are   16 randomized atomic wfcs

     Band Structure Calculation
     Davidson diagonalization with overlap

     Computing kpt #:     1
     total cpu time spent up to now is        3.1 secs

     Computing kpt #:     2
     total cpu time spent up to now is        5.1 secs

     Computing kpt #:     3
     total cpu time spent up to now is        8.9 secs

     Computing kpt #:     4
     total cpu time spent up to now is       15.0 secs

     Computing kpt #:     5
     total cpu time spent up to now is       20.2 secs

     Computing kpt #:     6
     total cpu time spent up to now is       24.4 secs

     Computing kpt #:     7
     total cpu time spent up to now is       27.9 secs

     Computing kpt #:     8
     total cpu time spent up to now is       33.2 secs

     Computing kpt #:     9
     total cpu time spent up to now is       39.6 secs

     Computing kpt #:    10
     total cpu time spent up to now is       44.2 secs

     Computing kpt #:    11
     total cpu time spent up to now is       49.7 secs

     Computing kpt #:    12
     total cpu time spent up to now is       55.1 secs

     Computing kpt #:    13
     total cpu time spent up to now is       60.8 secs

     Computing kpt #:    14
     total cpu time spent up to now is       65.9 secs

     Computing kpt #:    15
     total cpu time spent up to now is       71.8 secs

     Computing kpt #:    16
     total cpu time spent up to now is       76.6 secs

     Computing kpt #:    17
     total cpu time spent up to now is       81.6 secs

     Computing kpt #:    18
     total cpu time spent up to now is       86.3 secs

     Computing kpt #:    19
     total cpu time spent up to now is       90.6 secs

     Computing kpt #:    20
     total cpu time spent up to now is       95.4 secs

     Computing kpt #:    21
     total cpu time spent up to now is       97.7 secs

     Computing kpt #:    22
     total cpu time spent up to now is      101.2 secs

     Computing kpt #:    23
     total cpu time spent up to now is      103.8 secs

     Computing kpt #:    24
     total cpu time spent up to now is      107.1 secs

     Computing kpt #:    25
     total cpu time spent up to now is      110.7 secs

     Computing kpt #:    26
     total cpu time spent up to now is      115.0 secs

     Computing kpt #:    27
     total cpu time spent up to now is      117.3 secs

     Computing kpt #:    28
     total cpu time spent up to now is      121.3 secs

     Computing kpt #:    29
     total cpu time spent up to now is      123.2 secs

     Computing kpt #:    30
     total cpu time spent up to now is      125.0 secs

     Computing kpt #:    31
     total cpu time spent up to now is      127.6 secs

     Computing kpt #:    32
     total cpu time spent up to now is      129.5 secs

     Computing kpt #:    33
     total cpu time spent up to now is      131.4 secs

     Computing kpt #:    34
     total cpu time spent up to now is      133.2 secs

     Computing kpt #:    35
     total cpu time spent up to now is      135.0 secs

     Computing kpt #:    36
     total cpu time spent up to now is      136.7 secs

     Computing kpt #:    37
     total cpu time spent up to now is      138.5 secs

     Computing kpt #:    38
     total cpu time spent up to now is      140.3 secs

     Computing kpt #:    39
     total cpu time spent up to now is      142.1 secs

     Computing kpt #:    40
     total cpu time spent up to now is      143.9 secs

     Computing kpt #:    41
     total cpu time spent up to now is      145.6 secs

     Computing kpt #:    42
     total cpu time spent up to now is      147.4 secs

     Computing kpt #:    43
     total cpu time spent up to now is      149.1 secs

     Computing kpt #:    44
     total cpu time spent up to now is      150.8 secs

     Computing kpt #:    45
     total cpu time spent up to now is      152.5 secs

     Computing kpt #:    46
     total cpu time spent up to now is      154.3 secs

     Computing kpt #:    47
     total cpu time spent up to now is      156.1 secs

     Computing kpt #:    48
     total cpu time spent up to now is      157.9 secs

     Computing kpt #:    49
     total cpu time spent up to now is      159.7 secs

     Computing kpt #:    50
     total cpu time spent up to now is      161.6 secs

     Computing kpt #:    51
     total cpu time spent up to now is      163.5 secs

     Computing kpt #:    52
     total cpu time spent up to now is      165.3 secs

     Computing kpt #:    53
     total cpu time spent up to now is      167.2 secs

     Computing kpt #:    54
     total cpu time spent up to now is      169.0 secs

     Computing kpt #:    55
     total cpu time spent up to now is      170.9 secs

     Computing kpt #:    56
     total cpu time spent up to now is      172.8 secs

     Computing kpt #:    57
     total cpu time spent up to now is      174.6 secs

     Computing kpt #:    58
     total cpu time spent up to now is      176.5 secs

     Computing kpt #:    59
     total cpu time spent up to now is      178.4 secs

     Computing kpt #:    60
     total cpu time spent up to now is      180.3 secs

     Computing kpt #:    61
     total cpu time spent up to now is      182.0 secs

     Computing kpt #:    62
     total cpu time spent up to now is      183.9 secs

     Computing kpt #:    63
     total cpu time spent up to now is      185.7 secs

     Computing kpt #:    64
     total cpu time spent up to now is      187.6 secs

     Computing kpt #:    65
     total cpu time spent up to now is      189.4 secs

     Computing kpt #:    66
     total cpu time spent up to now is      191.4 secs

     Computing kpt #:    67
     total cpu time spent up to now is      193.2 secs

     Computing kpt #:    68
     total cpu time spent up to now is      195.0 secs

     Computing kpt #:    69
     total cpu time spent up to now is      196.9 secs

     Computing kpt #:    70
     total cpu time spent up to now is      198.7 secs

     Computing kpt #:    71
     total cpu time spent up to now is      200.4 secs

     Computing kpt #:    72
     total cpu time spent up to now is      202.2 secs

     Computing kpt #:    73
     total cpu time spent up to now is      203.9 secs

     Computing kpt #:    74
     total cpu time spent up to now is      205.7 secs

     Computing kpt #:    75
     total cpu time spent up to now is      207.5 secs

     Computing kpt #:    76
     total cpu time spent up to now is      209.3 secs

     Computing kpt #:    77
     total cpu time spent up to now is      211.1 secs

     Computing kpt #:    78
     total cpu time spent up to now is      212.8 secs

     Computing kpt #:    79
     total cpu time spent up to now is      214.6 secs

     Computing kpt #:    80
     total cpu time spent up to now is      216.4 secs

     Computing kpt #:    81
     total cpu time spent up to now is      218.2 secs

     Computing kpt #:    82
     total cpu time spent up to now is      220.3 secs

     Computing kpt #:    83
     total cpu time spent up to now is      224.6 secs

     Computing kpt #:    84
     total cpu time spent up to now is      227.8 secs

     Computing kpt #:    85
     total cpu time spent up to now is      231.5 secs

     Computing kpt #:    86
     total cpu time spent up to now is      234.5 secs

     Computing kpt #:    87
     total cpu time spent up to now is      238.4 secs

     Computing kpt #:    88
     total cpu time spent up to now is      241.1 secs

     Computing kpt #:    89
     total cpu time spent up to now is      245.3 secs

     Computing kpt #:    90
     total cpu time spent up to now is      247.8 secs

     Computing kpt #:    91
     total cpu time spent up to now is      252.4 secs

     ethr =  2.50E-12,  avg # of iterations = 39.7

     total cpu time spent up to now is      252.4 secs

     End of band structure calculation

          k = 0.0000 0.0000 0.0000 ( 11165 PWs)   bands (ev):

   -14.0287 -10.6484  -8.8798  -8.8754  -5.9519  -5.5402  -5.5374  -3.3935
    -1.9412  -1.9378  -1.1399   0.9151

          k = 0.0000 0.0192 0.0000 ( 11159 PWs)   bands (ev):

   -14.0277 -10.6545  -8.8780  -8.8719  -5.9507  -5.5390  -5.5359  -3.3974
    -1.9401  -1.9367  -1.1367   0.9178

          k = 0.0000 0.0385 0.0000 ( 11177 PWs)   bands (ev):

   -14.0247 -10.6727  -8.8802  -8.8546  -5.9471  -5.5392  -5.5277  -3.4090
    -1.9415  -1.9291  -1.1273   0.9256

          k = 0.0000 0.0577 0.0000 ( 11165 PWs)   bands (ev):

   -14.0197 -10.7020  -8.8845  -8.8258  -5.9412  -5.5403  -5.5132  -3.4278
    -1.9447  -1.9159  -1.1117   0.9383

          k = 0.0000 0.0770 0.0000 ( 11169 PWs)   bands (ev):

   -14.0127 -10.7414  -8.8906  -8.7872  -5.9332  -5.5414  -5.4931  -3.4533
    -1.9492  -1.8980  -1.0900   0.9549

          k = 0.0000 0.0962 0.0000 ( 11181 PWs)   bands (ev):

   -14.0037 -10.7894  -8.8982  -8.7402  -5.9233  -5.5423  -5.4674  -3.4848
    -1.9549  -1.8762  -1.0625   0.9743

          k = 0.0000 0.1155 0.0000 ( 11165 PWs)   bands (ev):

   -13.9928 -10.8446  -8.9073  -8.6864  -5.9119  -5.5424  -5.4364  -3.5215
    -1.9615  -1.8511  -1.0293   0.9940

          k = 0.0000 0.1347 0.0000 ( 11163 PWs)   bands (ev):

   -13.9800 -10.9057  -8.9177  -8.6273  -5.8996  -5.5411  -5.4004  -3.5625
    -1.9691  -1.8236  -0.9909   1.0099

          k = 0.0000 0.1540 0.0000 ( 11173 PWs)   bands (ev):

   -13.9653 -10.9713  -8.9291  -8.5641  -5.8868  -5.5377  -5.3595  -3.6071
    -1.9774  -1.7943  -0.9477   1.0149

          k = 0.0000 0.1732 0.0000 ( 11159 PWs)   bands (ev):

   -13.9487 -11.0406  -8.9416  -8.4981  -5.8743  -5.5314  -5.3141  -3.6542
    -1.9862  -1.7637  -0.9004   0.9998

          k = 0.0000 0.1925 0.0000 ( 11153 PWs)   bands (ev):

   -13.9304 -11.1124  -8.9548  -8.4303  -5.8627  -5.5216  -5.2646  -3.7032
    -1.9955  -1.7326  -0.8497   0.9585

          k = 0.0000 0.2117 0.0000 ( 11141 PWs)   bands (ev):

   -13.9104 -11.1860  -8.9686  -8.3617  -5.8525  -5.5076  -5.2111  -3.7532
    -2.0050  -1.7013  -0.7967   0.8920

          k = 0.0000 0.2309 0.0000 ( 11155 PWs)   bands (ev):

   -13.8888 -11.2608  -8.9829  -8.2932  -5.8442  -5.4893  -5.1543  -3.8034
    -2.0144  -1.6704  -0.7430   0.8061

          k = 0.0000 0.2502 0.0000 ( 11155 PWs)   bands (ev):

   -13.8656 -11.3360  -8.9974  -8.2253  -5.8376  -5.4667  -5.0944  -3.8530
    -2.0238  -1.6402  -0.6903   0.7077

          k = 0.0000 0.2694 0.0000 ( 11155 PWs)   bands (ev):

   -13.8410 -11.4111  -9.0119  -8.1588  -5.8327  -5.4404  -5.0318  -3.9012
    -2.0327  -1.6110  -0.6414   0.6043

          k = 0.0000 0.2887 0.0000 ( 11139 PWs)   bands (ev):

   -13.8152 -11.4857  -9.0264  -8.0942  -5.8290  -5.4112  -4.9672  -3.9470
    -2.0410  -1.5831  -0.5996   0.4953

          k = 0.0000 0.3079 0.0000 ( 11127 PWs)   bands (ev):

   -13.7881 -11.5593  -9.0407  -8.0320  -5.8260  -5.3801  -4.9010  -3.9896
    -2.0486  -1.5570  -0.5699   0.3529

          k = 0.0000 0.3272 0.0000 ( 11137 PWs)   bands (ev):

   -13.7602 -11.6314  -9.0545  -7.9726  -5.8232  -5.3485  -4.8339  -4.0280
    -2.0552  -1.5330  -0.5577   0.2116

          k = 0.0000 0.3464 0.0000 ( 11127 PWs)   bands (ev):

   -13.7315 -11.7017  -9.0679  -7.9165  -5.8203  -5.3177  -4.7663  -4.0613
    -2.0607  -1.5115  -0.5676   0.0732

          k = 0.0000 0.3657 0.0000 ( 11117 PWs)   bands (ev):

   -13.7023 -11.7696  -9.0806  -7.8640  -5.8168  -5.2889  -4.6991  -4.0885
    -2.0648  -1.4931  -0.6009  -0.0614

          k = 0.0000 0.3849 0.0000 ( 11111 PWs)   bands (ev):

   -13.6729 -11.8348  -9.0926  -7.8153  -5.8126  -5.2635  -4.6329  -4.1089
    -2.0675  -1.4784  -0.6535  -0.1911

          k = 0.0000 0.4041 0.0000 ( 11119 PWs)   bands (ev):

   -13.6437 -11.8967  -9.1037  -7.7708  -5.8076  -5.2425  -4.5687  -4.1220
    -2.0686  -1.4681  -0.7182  -0.3148

          k = 0.0000 0.4234 0.0000 ( 11122 PWs)   bands (ev):

   -13.6152 -11.9548  -9.1139  -7.7305  -5.8017  -5.2265  -4.5073  -4.1278
    -2.0680  -1.4631  -0.7870  -0.4315

          k = 0.0000 0.4426 0.0000 ( 11126 PWs)   bands (ev):

   -13.5877 -12.0085  -9.1231  -7.6947  -5.7950  -5.2157  -4.4496  -4.1269
    -2.0659  -1.4643  -0.8532  -0.5400

          k = 0.0000 0.4619 0.0000 ( 11144 PWs)   bands (ev):

   -13.5619 -12.0572  -9.1312  -7.6635  -5.7878  -5.2097  -4.3967  -4.1202
    -2.0623  -1.4721  -0.9120  -0.6389

          k = 0.0000 0.4811 0.0000 ( 11142 PWs)   bands (ev):

   -13.5384 -12.1002  -9.1381  -7.6370  -5.7805  -5.2077  -4.3497  -4.1096
    -2.0576  -1.4858  -0.9602  -0.7268

          k = 0.0000 0.5004 0.0000 ( 11124 PWs)   bands (ev):

   -13.5179 -12.1368  -9.1438  -7.6152  -5.7735  -5.2086  -4.3094  -4.0968
    -2.0522  -1.5039  -0.9969  -0.8021

          k = 0.0000 0.5196 0.0000 ( 11124 PWs)   bands (ev):

   -13.5010 -12.1662  -9.1484  -7.5983  -5.7672  -5.2111  -4.2770  -4.0842
    -2.0468  -1.5232  -1.0228  -0.8631

          k = 0.0000 0.5389 0.0000 ( 11140 PWs)   bands (ev):

   -13.4884 -12.1877  -9.1516  -7.5861  -5.7623  -5.2140  -4.2531  -4.0735
    -2.0421  -1.5402  -1.0395  -0.9082

          k = 0.0000 0.5581 0.0000 ( 11130 PWs)   bands (ev):

   -13.4806 -12.2009  -9.1535  -7.5788  -5.7591  -5.2162  -4.2385  -4.0663
    -2.0389  -1.5518  -1.0487  -0.9359

          k = 0.0000 0.5774 0.0000 ( 11134 PWs)   bands (ev):

   -13.4779 -12.2053  -9.1542  -7.5764  -5.7580  -5.2170  -4.2336  -4.0639
    -2.0378  -1.5560  -1.0516  -0.9453

          k = 0.0111 0.5773 0.0000 ( 11126 PWs)   bands (ev):

   -13.4777 -12.2057  -9.1550  -7.5745  -5.7592  -5.2163  -4.2337  -4.0643
    -2.0415  -1.5521  -1.0516  -0.9439

          k = 0.0222 0.5773 0.0000 ( 11126 PWs)   bands (ev):

   -13.4768 -12.2070  -9.1574  -7.5688  -5.7628  -5.2144  -4.2337  -4.0656
    -2.0522  -1.5408  -1.0514  -0.9397

          k = 0.0333 0.5773 0.0000 ( 11118 PWs)   bands (ev):

   -13.4755 -12.2090  -9.1613  -7.5595  -5.7687  -5.2113  -4.2339  -4.0678
    -2.0689  -1.5231  -1.0508  -0.9330

          k = 0.0444 0.5773 0.0000 ( 11114 PWs)   bands (ev):

   -13.4736 -12.2118  -9.1667  -7.5465  -5.7771  -5.2068  -4.2342  -4.0708
    -2.0905  -1.5003  -1.0496  -0.9239

          k = 0.0556 0.5773 0.0000 ( 11118 PWs)   bands (ev):

   -13.4712 -12.2154  -9.1734  -7.5300  -5.7877  -5.2010  -4.2347  -4.0746
    -2.1157  -1.4735  -1.0476  -0.9129

          k = 0.0667 0.5773 0.0000 ( 11114 PWs)   bands (ev):

   -13.4683 -12.2197  -9.1813  -7.5103  -5.8006  -5.1939  -4.2356  -4.0790
    -2.1435  -1.4438  -1.0443  -0.9000

          k = 0.0778 0.5773 0.0000 ( 11108 PWs)   bands (ev):

   -13.4648 -12.2248  -9.1902  -7.4875  -5.8157  -5.1855  -4.2370  -4.0839
    -2.1730  -1.4122  -1.0397  -0.8855

          k = 0.0889 0.5773 0.0000 ( 11104 PWs)   bands (ev):

   -13.4609 -12.2306  -9.2000  -7.4617  -5.8329  -5.1757  -4.2392  -4.0892
    -2.2035  -1.3795  -1.0336  -0.8696

          k = 0.1000 0.5773 0.0000 ( 11098 PWs)   bands (ev):

   -13.4565 -12.2370  -9.2104  -7.4333  -5.8522  -5.1646  -4.2422  -4.0948
    -2.2347  -1.3461  -1.0257  -0.8524

          k = 0.1111 0.5773 0.0000 ( 11118 PWs)   bands (ev):

   -13.4517 -12.2441  -9.2214  -7.4024  -5.8734  -5.1520  -4.2464  -4.1004
    -2.2660  -1.3128  -1.0160  -0.8339

          k = 0.1222 0.5773 0.0000 ( 11118 PWs)   bands (ev):

   -13.4465 -12.2518  -9.2328  -7.3693  -5.8965  -5.1382  -4.2519  -4.1058
    -2.2971  -1.2798  -1.0042  -0.8142

          k = 0.1333 0.5773 0.0000 ( 11120 PWs)   bands (ev):

   -13.4410 -12.2599  -9.2443  -7.3341  -5.9214  -5.1229  -4.2590  -4.1109
    -2.3278  -1.2478  -0.9904  -0.7933

          k = 0.1444 0.5773 0.0000 ( 11130 PWs)   bands (ev):

   -13.4350 -12.2686  -9.2559  -7.2972  -5.9479  -5.1063  -4.2677  -4.1156
    -2.3579  -1.2170  -0.9744  -0.7711

          k = 0.1555 0.5773 0.0000 ( 11126 PWs)   bands (ev):

   -13.4288 -12.2777  -9.2674  -7.2587  -5.9761  -5.0884  -4.2781  -4.1198
    -2.3871  -1.1878  -0.9562  -0.7478

          k = 0.1667 0.5773 0.0000 ( 11122 PWs)   bands (ev):

   -13.4223 -12.2871  -9.2787  -7.2188  -6.0056  -5.0692  -4.2903  -4.1235
    -2.4153  -1.1605  -0.9357  -0.7233

          k = 0.1778 0.5773 0.0000 ( 11118 PWs)   bands (ev):

   -13.4157 -12.2967  -9.2897  -7.1777  -6.0366  -5.0488  -4.3042  -4.1267
    -2.4423  -1.1352  -0.9132  -0.6976

          k = 0.1889 0.5773 0.0000 ( 11124 PWs)   bands (ev):

   -13.4089 -12.3065  -9.3002  -7.1357  -6.0687  -5.0272  -4.3196  -4.1295
    -2.4680  -1.1120  -0.8887  -0.6708

          k = 0.2000 0.5773 0.0000 ( 11124 PWs)   bands (ev):

   -13.4020 -12.3164  -9.3102  -7.0928  -6.1021  -5.0045  -4.3365  -4.1320
    -2.4924  -1.0908  -0.8626  -0.6429

          k = 0.2111 0.5773 0.0000 ( 11128 PWs)   bands (ev):

   -13.3951 -12.3263  -9.3196  -7.0493  -6.1365  -4.9807  -4.3546  -4.1342
    -2.5152  -1.0716  -0.8351  -0.6142

          k = 0.2222 0.5773 0.0000 ( 11128 PWs)   bands (ev):

   -13.3883 -12.3360  -9.3283  -7.0054  -6.1719  -4.9561  -4.3738  -4.1363
    -2.5365  -1.0542  -0.8064  -0.5850

          k = 0.2333 0.5773 0.0000 ( 11124 PWs)   bands (ev):

   -13.3817 -12.3454  -9.3363  -6.9611  -6.2081  -4.9308  -4.3939  -4.1383
    -2.5560  -1.0386  -0.7767  -0.5555

          k = 0.2444 0.5773 0.0000 ( 11120 PWs)   bands (ev):

   -13.3753 -12.3545  -9.3436  -6.9166  -6.2452  -4.9050  -4.4147  -4.1402
    -2.5738  -1.0248  -0.7461  -0.5264

          k = 0.2555 0.5773 0.0000 ( 11096 PWs)   bands (ev):

   -13.3693 -12.3630  -9.3501  -6.8722  -6.2829  -4.8789  -4.4359  -4.1421
    -2.5897  -1.0125  -0.7149  -0.4984

          k = 0.2666 0.5773 0.0000 ( 11094 PWs)   bands (ev):

   -13.3637 -12.3709  -9.3557  -6.8279  -6.3212  -4.8530  -4.4572  -4.1439
    -2.6037  -1.0019  -0.6830  -0.4726

          k = 0.2778 0.5773 0.0000 ( 11088 PWs)   bands (ev):

   -13.3587 -12.3779  -9.3605  -6.7839  -6.3601  -4.8276  -4.4782  -4.1456
    -2.6157  -0.9928  -0.6506  -0.4503

          k = 0.2889 0.5773 0.0000 ( 11092 PWs)   bands (ev):

   -13.3544 -12.3840  -9.3644  -6.7404  -6.3992  -4.8036  -4.4983  -4.1472
    -2.6256  -0.9853  -0.6178  -0.4336

          k = 0.3000 0.5773 0.0000 ( 11088 PWs)   bands (ev):

   -13.3508 -12.3890  -9.3675  -6.6978  -6.4384  -4.7819  -4.5166  -4.1485
    -2.6335  -0.9794  -0.5847  -0.4250

          k = 0.3111 0.5773 0.0000 ( 11096 PWs)   bands (ev):

   -13.3482 -12.3927  -9.3697  -6.6566  -6.4771  -4.7641  -4.5318  -4.1496
    -2.6391  -0.9751  -0.5516  -0.4269

          k = 0.3222 0.5773 0.0000 ( 11092 PWs)   bands (ev):

   -13.3465 -12.3950  -9.3710  -6.6193  -6.5128  -4.7522  -4.5419  -4.1503
    -2.6426  -0.9725  -0.5199  -0.4401

          k = 0.3333 0.5773 0.0000 ( 11088 PWs)   bands (ev):

   -13.3460 -12.3957  -9.3715  -6.5995  -6.5322  -4.7480  -4.5455  -4.1505
    -2.6437  -0.9716  -0.4992  -0.4548

          k = 0.3222 0.5580 0.0000 ( 11088 PWs)   bands (ev):

   -13.3483 -12.3925  -9.3696  -6.6556  -6.4782  -4.7637  -4.5327  -4.1495
    -2.6390  -0.9756  -0.5701  -0.4012

          k = 0.3111 0.5388 0.0000 ( 11074 PWs)   bands (ev):

   -13.3558 -12.3818  -9.3645  -6.7374  -6.4029  -4.8021  -4.5043  -4.1460
    -2.6246  -0.9892  -0.6731  -0.3322

          k = 0.3000 0.5196 0.0000 ( 11084 PWs)   bands (ev):

   -13.3687 -12.3634  -9.3564  -6.8220  -6.3294  -4.8509  -4.4735  -4.1407
    -2.6004  -1.0169  -0.7715  -0.2633

          k = 0.2889 0.5003 0.0000 ( 11092 PWs)   bands (ev):

   -13.3867 -12.3370  -9.3453  -6.9077  -6.2596  -4.9043  -4.4463  -4.1351
    -2.5666  -1.0651  -0.8476  -0.1965

          k = 0.2778 0.4811 0.0000 ( 11116 PWs)   bands (ev):

   -13.4094 -12.3030  -9.3315  -6.9940  -6.1941  -4.9595  -4.4241  -4.1321
    -2.5239  -1.1312  -0.8962  -0.1341

          k = 0.2666 0.4618 0.0000 ( 11120 PWs)   bands (ev):

   -13.4361 -12.2617  -9.3154  -7.0806  -6.1334  -5.0152  -4.4064  -4.1346
    -2.4738  -1.2012  -0.9257  -0.0784

          k = 0.2555 0.4426 0.0000 ( 11140 PWs)   bands (ev):

   -13.4662 -12.2137  -9.2971  -7.1676  -6.0775  -5.0707  -4.3926  -4.1446
    -2.4189  -1.2628  -0.9437  -0.0328

          k = 0.2444 0.4233 0.0000 ( 11148 PWs)   bands (ev):

   -13.4989 -12.1596  -9.2769  -7.2547  -6.0269  -5.1252  -4.3832  -4.1616
    -2.3627  -1.3105  -0.9514  -0.0002

          k = 0.2333 0.4041 0.0000 ( 11160 PWs)   bands (ev):

   -13.5335 -12.1001  -9.2551  -7.3420  -5.9815  -5.1784  -4.3821  -4.1811
    -2.3087  -1.3438  -0.9462   0.0169

          k = 0.2222 0.3849 0.0000 ( 11142 PWs)   bands (ev):

   -13.5692 -12.0356  -9.2320  -7.4295  -5.9415  -5.2298  -4.3970  -4.1937
    -2.2603  -1.3662  -0.9233   0.0177

          k = 0.2111 0.3656 0.0000 ( 11144 PWs)   bands (ev):

   -13.6057 -11.9667  -9.2078  -7.5171  -5.9068  -5.2789  -4.4347  -4.1906
    -2.2191  -1.3841  -0.8786   0.0041

          k = 0.2000 0.3464 0.0000 ( 11136 PWs)   bands (ev):

   -13.6422 -11.8939  -9.1828  -7.6049  -5.8775  -5.3254  -4.4931  -4.1716
    -2.1849  -1.4029  -0.8116  -0.0191

          k = 0.1889 0.3271 0.0000 ( 11154 PWs)   bands (ev):

   -13.6785 -11.8176  -9.1574  -7.6928  -5.8536  -5.3687  -4.5655  -4.1411
    -2.1565  -1.4257  -0.7290  -0.0433

          k = 0.1778 0.3079 0.0000 ( 11152 PWs)   bands (ev):

   -13.7141 -11.7384  -9.1317  -7.7810  -5.8350  -5.4083  -4.6466  -4.1024
    -2.1323  -1.4531  -0.6462  -0.0538

          k = 0.1667 0.2886 0.0000 ( 11149 PWs)   bands (ev):

   -13.7487 -11.6566  -9.1061  -7.8693  -5.8219  -5.4437  -4.7324  -4.0576
    -2.1108  -1.4846  -0.5872  -0.0281

          k = 0.1555 0.2694 0.0000 ( 11155 PWs)   bands (ev):

   -13.7821 -11.5727  -9.0809  -7.9577  -5.8143  -5.4742  -4.8203  -4.0080
    -2.0910  -1.5192  -0.5719   0.0513

          k = 0.1444 0.2502 0.0000 ( 11165 PWs)   bands (ev):

   -13.8139 -11.4872  -9.0562  -8.0460  -5.8122  -5.4992  -4.9078  -3.9547
    -2.0723  -1.5561  -0.5963   0.1785

          k = 0.1333 0.2309 0.0000 ( 11139 PWs)   bands (ev):

   -13.8441 -11.4007  -9.0323  -8.1341  -5.8156  -5.5185  -4.9934  -3.8986
    -2.0546  -1.5945  -0.6440   0.3348

          k = 0.1222 0.2117 0.0000 ( 11137 PWs)   bands (ev):

   -13.8724 -11.3137  -9.0094  -8.2217  -5.8238  -5.5323  -5.0754  -3.8407
    -2.0377  -1.6338  -0.7028   0.5046

          k = 0.1111 0.1924 0.0000 ( 11127 PWs)   bands (ev):

   -13.8986 -11.2269  -8.9878  -8.3084  -5.8359  -5.5412  -5.1528  -3.7820
    -2.0217  -1.6735  -0.7655   0.6756

          k = 0.1000 0.1732 0.0000 ( 11137 PWs)   bands (ev):

   -13.9227 -11.1412  -8.9677  -8.3935  -5.8506  -5.5461  -5.2245  -3.7234
    -2.0068  -1.7130  -0.8282   0.8330

          k = 0.0889 0.1539 0.0000 ( 11161 PWs)   bands (ev):

   -13.9445 -11.0576  -8.9492  -8.4762  -5.8669  -5.5481  -5.2898  -3.6661
    -1.9930  -1.7518  -0.8882   0.9525

          k = 0.0778 0.1347 0.0000 ( 11173 PWs)   bands (ev):

   -13.9639 -10.9771  -8.9324  -8.5557  -5.8835  -5.5480  -5.3481  -3.6111
    -1.9805  -1.7893  -0.9438   1.0067

          k = 0.0667 0.1155 0.0000 ( 11165 PWs)   bands (ev):

   -13.9809 -10.9012  -8.9177  -8.6305  -5.8995  -5.5467  -5.3990  -3.5596
    -1.9695  -1.8246  -0.9938   1.0085

          k = 0.0556 0.0962 0.0000 ( 11175 PWs)   bands (ev):

   -13.9954 -10.8316  -8.9050  -8.6991  -5.9143  -5.5447  -5.4421  -3.5129
    -1.9600  -1.8569  -1.0373   0.9899

          k = 0.0444 0.0770 0.0000 ( 11175 PWs)   bands (ev):

   -14.0074 -10.7702  -8.8944  -8.7596  -5.9272  -5.5425  -5.4775  -3.4722
    -1.9521  -1.8854  -1.0737   0.9668

          k = 0.0333 0.0577 0.0000 ( 11171 PWs)   bands (ev):

   -14.0167 -10.7192  -8.8862  -8.8099  -5.9377  -5.5404  -5.5050  -3.4389
    -1.9459  -1.9089  -1.1024   0.9456

          k = 0.0222 0.0385 0.0000 ( 11171 PWs)   bands (ev):

   -14.0234 -10.6806  -8.8802  -8.8479  -5.9455  -5.5388  -5.5246  -3.4141
    -1.9414  -1.9265  -1.1232   0.9291

          k = 0.0111 0.0192 0.0000 ( 11167 PWs)   bands (ev):

   -14.0274 -10.6566  -8.8766  -8.8717  -5.9503  -5.5377  -5.5363  -3.3987
    -1.9387  -1.9375  -1.1357   0.9187

          k = 0.0000 0.0000 0.0000 ( 11165 PWs)   bands (ev):

   -14.0287 -10.6484  -8.8798  -8.8754  -5.9519  -5.5402  -5.5374  -3.3935
    -1.9412  -1.9378  -1.1399   0.9151

     Writing output data file aiida.save/

     init_run     :      0.96s CPU      1.03s WALL (       1 calls)
     electrons    :    267.07s CPU    251.22s WALL (       1 calls)

     Called by init_run:
     wfcinit      :      0.00s CPU      0.00s WALL (       1 calls)
     wfcinit:atom :      0.18s CPU      0.27s WALL (      91 calls)
     wfcinit:wfcr :     12.12s CPU     12.18s WALL (      91 calls)
     potinit      :      0.29s CPU      0.33s WALL (       1 calls)
     hinit0       :      0.53s CPU      0.54s WALL (       1 calls)

     Called by electrons:
     c_bands      :    267.07s CPU    251.20s WALL (       1 calls)
     v_of_rho     :      0.23s CPU      0.26s WALL (       1 calls)
     v_h          :      0.02s CPU      0.03s WALL (       1 calls)
     v_xc         :      0.21s CPU      0.23s WALL (       1 calls)

     Called by c_bands:
     init_us_2    :      0.37s CPU      0.52s WALL (      91 calls)
     cegterg      :    248.92s CPU    232.44s WALL (     221 calls)

     Called by sum_band:

     Called by *egterg:
     h_psi        :    212.47s CPU    200.39s WALL (    3927 calls)
     g_psi        :      1.86s CPU      1.30s WALL (    3615 calls)
     cdiaghg      :      4.05s CPU      4.14s WALL (    3706 calls)
     cegterg:over :     18.39s CPU     17.36s WALL (    3615 calls)
     cegterg:upda :     10.44s CPU      8.86s WALL (    3615 calls)
     cegterg:last :      5.25s CPU      3.73s WALL (     688 calls)

     Called by h_psi:
     h_psi:pot    :    211.88s CPU    199.90s WALL (    3927 calls)
     h_psi:calbec :     23.18s CPU     20.23s WALL (    3927 calls)
     vloc_psi     :    172.48s CPU    164.91s WALL (    3927 calls)
     add_vuspsi   :     16.17s CPU     14.74s WALL (    3927 calls)

     General routines
     calbec       :     23.16s CPU     20.22s WALL (    3927 calls)
     fft          :      0.21s CPU      0.22s WALL (      12 calls)
     ffts         :      0.01s CPU      0.01s WALL (       1 calls)
     fftw         :    150.32s CPU    144.28s WALL (   49616 calls)
     interpolate  :      0.02s CPU      0.03s WALL (       1 calls)
     davcio       :      0.14s CPU      0.18s WALL (     182 calls)

     Parallel routines
     fft_scatt_xy :     24.08s CPU     22.94s WALL (   49629 calls)
     fft_scatt_yz :     33.14s CPU     32.11s WALL (   49629 calls)

     PWSCF        :   4m28.41s CPU   4m12.96s WALL


   This run was terminated on:  20: 6:13   8Jan2025            

=------------------------------------------------------------------------------=
   JOB DONE.
=------------------------------------------------------------------------------=
