
     Program PWSCF v.6.4.1 starts on  8Jan2025 at 19:56: 7 

     This program is part of the open-source Quantum ESPRESSO suite
     for quantum simulation of materials; please cite
         "P. Giannozzi et al., J. Phys.:Condens. Matter 21 395502 (2009);
         "P. Giannozzi et al., J. Phys.:Condens. Matter 29 465901 (2017);
          URL http://www.quantum-espresso.org", 
     in publications or presentations arising from this work. More details at
     http://www.quantum-espresso.org/quote

     Parallel version (MPI), running on     2 processors

     MPI processes distributed on     1 nodes
     R & G space division:  proc/nbgrp/npool/nimage =       2
     Waiting for input...
     Reading input from standard input

     Current dimensions of program PWSCF are:
     Max number of different atomic species (ntypx) = 10
     Max number of k-points (npk) =  40000
     Max angular momentum in pseudopotentials (lmaxx) =  3

     Subspace diagonalization in iterative solution of the eigenvalue problem:
     a serial algorithm will be used

     Message from routine setup:
     DEPRECATED: symmetry with ibrav=0, use correct ibrav instead

     Parallelization info
     --------------------
     sticks:   dense  smooth     PW     G-vecs:    dense   smooth      PW
     Min        1025     513    147               125985    44611    6744
     Max        1028     514    148               125986    44614    6749
     Sum        2053    1027    295               251971    89225   13493



     bravais-lattice index     =            0
     lattice parameter (alat)  =      11.0738  a.u.
     unit-cell volume          =    4013.7698 (a.u.)^3
     number of atoms/cell      =            4
     number of atomic types    =            1
     number of electrons       =        16.00
     number of Kohn-Sham states=           12
     kinetic-energy cutoff     =      30.0000  Ry
     charge density cutoff     =     240.0000  Ry
     convergence threshold     =      4.0E-10
     mixing beta               =       0.4000
     number of iterations used =            8  plain     mixing
     Exchange-correlation      = PBE ( 1  4  3  4 0 0)

     celldm(1)=  11.073795  celldm(2)=   0.000000  celldm(3)=   0.000000
     celldm(4)=   0.000000  celldm(5)=   0.000000  celldm(6)=   0.000000

     crystal axes: (cart. coord. in units of alat)
               a(1) = (   1.000000   0.000000   0.000000 )  
               a(2) = (  -0.500000   0.866025   0.000000 )  
               a(3) = (   0.000000   0.000000   3.412969 )  

     reciprocal axes: (cart. coord. in units 2 pi/alat)
               b(1) = (  1.000000  0.577350 -0.000000 )  
               b(2) = (  0.000000  1.154701  0.000000 )  
               b(3) = (  0.000000 -0.000000  0.293000 )  


     PseudoPot. # 1 for Si read from file:
     ../../pseudo/Si.pbe.upf
     MD5 check sum: 3f156eda2279325da2083dedf8f436a5
     Pseudo is Norm-conserving + core correction, Zval =  4.0
     Generated using ONCVPSP code by D. R. Hamann
     Using radial grid of 1510 points,  6 beta functions with: 
                l(1) =   0
                l(2) =   0
                l(3) =   1
                l(4) =   1
                l(5) =   2
                l(6) =   2

     atomic species   valence    mass     pseudopotential
        Si             4.00    28.08550     Si( 1.00)

      2 Sym. Ops. (no inversion) found


                                    s                        frac. trans.

      isym =  1     identity                                     

 cryst.   s( 1) = (     1          0          0      )
                  (     0          1          0      )
                  (     0          0          1      )

 cart.    s( 1) = (  1.0000000  0.0000000  0.0000000 )
                  (  0.0000000  1.0000000  0.0000000 )
                  (  0.0000000  0.0000000  1.0000000 )


      isym =  2     inv. 180 deg rotation - cryst. axis [1,1,0]  

 cryst.   s( 2) = (     0         -1          0      )
                  (    -1          0          0      )
                  (     0          0          1      )

 cart.    s( 2) = (  0.5000000 -0.8660254  0.0000000 )
                  ( -0.8660254 -0.5000000  0.0000000 )
                  (  0.0000000  0.0000000  1.0000000 )


   Cartesian axes

     site n.     atom                  positions (alat units)
         1           Si  tau(   1) = (   0.2500000   0.4330127   1.7064846  )
         2           Si  tau(   2) = (   0.4420000   0.1004589   1.7064846  )
         3           Si  tau(   3) = (   0.6340000   0.4330127   1.7064846  )
         4           Si  tau(   4) = (  -0.0582500   0.6109809   1.8839590  )

   Crystallographic axes

     site n.     atom                  positions (cryst. coord.)
         1           Si  tau(   1) = (  0.5000000  0.5000000  0.5000000  )
         2           Si  tau(   2) = (  0.5000000  0.1160000  0.5000000  )
         3           Si  tau(   3) = (  0.8840000  0.5000000  0.5000000  )
         4           Si  tau(   4) = (  0.2945000  0.7055000  0.5520000  )

     number of k points=    21  Marzari-Vanderbilt smearing, width (Ry)=  0.0147
                       cart. coord. in units 2pi/alat
        k(    1) = (   0.0000000   0.0000000   0.0000000), wk =   0.0312500
        k(    2) = (   0.0000000   0.1443376   0.0000000), wk =   0.1250000
        k(    3) = (   0.0000000   0.2886751   0.0000000), wk =   0.1250000
        k(    4) = (   0.0000000   0.4330127   0.0000000), wk =   0.1250000
        k(    5) = (   0.0000000  -0.5773503   0.0000000), wk =   0.0625000
        k(    6) = (   0.1250000   0.2165064   0.0000000), wk =   0.0625000
        k(    7) = (   0.1250000   0.3608439   0.0000000), wk =   0.1250000
        k(    8) = (   0.1250000   0.5051815   0.0000000), wk =   0.1250000
        k(    9) = (   0.2500000   0.4330127   0.0000000), wk =   0.0625000
        k(   10) = (   0.2500000   0.5773503   0.0000000), wk =   0.1250000
        k(   11) = (  -0.1250000   0.0721688   0.0000000), wk =   0.0625000
        k(   12) = (  -0.2500000   0.1443376   0.0000000), wk =   0.0625000
        k(   13) = (  -0.3750000   0.2165064   0.0000000), wk =   0.0625000
        k(   14) = (   0.5000000  -0.2886751   0.0000000), wk =   0.0312500
        k(   15) = (  -0.1250000   0.2165064   0.0000000), wk =   0.1250000
        k(   16) = (  -0.1250000   0.3608439   0.0000000), wk =   0.1250000
        k(   17) = (  -0.2500000   0.2886751   0.0000000), wk =   0.1250000
        k(   18) = (  -0.1250000   0.5051815   0.0000000), wk =   0.1250000
        k(   19) = (  -0.3750000   0.3608439   0.0000000), wk =   0.1250000
        k(   20) = (  -0.2500000   0.4330127   0.0000000), wk =   0.1250000
        k(   21) = (  -0.3750000   0.5051815   0.0000000), wk =   0.0625000

                       cryst. coord.
        k(    1) = (   0.0000000   0.0000000   0.0000000), wk =   0.0312500
        k(    2) = (   0.0000000   0.1250000   0.0000000), wk =   0.1250000
        k(    3) = (   0.0000000   0.2500000   0.0000000), wk =   0.1250000
        k(    4) = (   0.0000000   0.3750000   0.0000000), wk =   0.1250000
        k(    5) = (   0.0000000  -0.5000000   0.0000000), wk =   0.0625000
        k(    6) = (   0.1250000   0.1250000   0.0000000), wk =   0.0625000
        k(    7) = (   0.1250000   0.2500000   0.0000000), wk =   0.1250000
        k(    8) = (   0.1250000   0.3750000   0.0000000), wk =   0.1250000
        k(    9) = (   0.2500000   0.2500000   0.0000000), wk =   0.0625000
        k(   10) = (   0.2500000   0.3750000   0.0000000), wk =   0.1250000
        k(   11) = (  -0.1250000   0.1250000   0.0000000), wk =   0.0625000
        k(   12) = (  -0.2500000   0.2500000   0.0000000), wk =   0.0625000
        k(   13) = (  -0.3750000   0.3750000   0.0000000), wk =   0.0625000
        k(   14) = (   0.5000000  -0.5000000   0.0000000), wk =   0.0312500
        k(   15) = (  -0.1250000   0.2500000   0.0000000), wk =   0.1250000
        k(   16) = (  -0.1250000   0.3750000   0.0000000), wk =   0.1250000
        k(   17) = (  -0.2500000   0.3750000   0.0000000), wk =   0.1250000
        k(   18) = (  -0.1250000   0.5000000   0.0000000), wk =   0.1250000
        k(   19) = (  -0.3750000   0.5000000   0.0000000), wk =   0.1250000
        k(   20) = (  -0.2500000   0.5000000   0.0000000), wk =   0.1250000
        k(   21) = (  -0.3750000   0.6250000   0.0000000), wk =   0.0625000

     Dense  grid:   251971 G-vectors     FFT dimensions: (  60,  60, 192)

     Smooth grid:    89225 G-vectors     FFT dimensions: (  40,  40, 135)

     Dynamical RAM for                 wfc:       1.02 MB

     Dynamical RAM for     wfc (w. buffer):      22.43 MB

     Dynamical RAM for           str. fact:       1.92 MB

     Dynamical RAM for           local pot:       0.00 MB

     Dynamical RAM for          nlocal pot:       6.12 MB

     Dynamical RAM for                qrad:       2.19 MB

     Dynamical RAM for          rho,v,vnew:      13.68 MB

     Dynamical RAM for               rhoin:       4.56 MB

     Dynamical RAM for            rho*nmix:      30.76 MB

     Dynamical RAM for           G-vectors:       7.55 MB

     Dynamical RAM for          h,s,v(r/c):       0.11 MB

     Dynamical RAM for          <psi|beta>:       0.01 MB

     Dynamical RAM for                 psi:       4.08 MB

     Dynamical RAM for                hpsi:       4.08 MB

     Dynamical RAM for      wfcinit/wfcrot:       2.72 MB

     Estimated static dynamical RAM per process >     106.23 MB

     Estimated max dynamical RAM per process >     114.51 MB

     Estimated total dynamical RAM >     229.01 MB

     Initial potential from superposition of free atoms

     starting charge   15.99755, renormalised to   16.00000

     negative rho (up, down):  7.085E-05 0.000E+00
     Starting wfcs are   16 randomized atomic wfcs

     total cpu time spent up to now is        4.1 secs

     Self-consistent Calculation

     iteration #  1     ecut=    30.00 Ry     beta= 0.40
     Davidson diagonalization with overlap
     ethr =  1.00E-02,  avg # of iterations =  3.8

     negative rho (up, down):  1.102E-05 0.000E+00

     total cpu time spent up to now is       15.9 secs

     total energy              =     -33.55480718 Ry
     Harris-Foulkes estimate   =     -33.64945094 Ry
     estimated scf accuracy    <       0.23371577 Ry

     iteration #  2     ecut=    30.00 Ry     beta= 0.40
     Davidson diagonalization with overlap
     ethr =  1.46E-03,  avg # of iterations =  2.0

     negative rho (up, down):  9.408E-06 0.000E+00

     total cpu time spent up to now is       22.7 secs

     total energy              =     -33.57116079 Ry
     Harris-Foulkes estimate   =     -33.58082415 Ry
     estimated scf accuracy    <       0.02804938 Ry

     iteration #  3     ecut=    30.00 Ry     beta= 0.40
     Davidson diagonalization with overlap
     ethr =  1.75E-04,  avg # of iterations =  3.3

     negative rho (up, down):  1.201E-05 0.000E+00

     total cpu time spent up to now is       30.3 secs

     total energy              =     -33.57432796 Ry
     Harris-Foulkes estimate   =     -33.57508718 Ry
     estimated scf accuracy    <       0.00320134 Ry

     iteration #  4     ecut=    30.00 Ry     beta= 0.40
     Davidson diagonalization with overlap
     ethr =  2.00E-05,  avg # of iterations =  3.6

     negative rho (up, down):  7.619E-06 0.000E+00

     total cpu time spent up to now is       38.3 secs

     total energy              =     -33.57465350 Ry
     Harris-Foulkes estimate   =     -33.57490595 Ry
     estimated scf accuracy    <       0.00088116 Ry

     iteration #  5     ecut=    30.00 Ry     beta= 0.40
     Davidson diagonalization with overlap
     ethr =  5.51E-06,  avg # of iterations =  2.9

     negative rho (up, down):  9.437E-06 0.000E+00

     total cpu time spent up to now is       45.7 secs

     total energy              =     -33.57473690 Ry
     Harris-Foulkes estimate   =     -33.57477670 Ry
     estimated scf accuracy    <       0.00015193 Ry

     iteration #  6     ecut=    30.00 Ry     beta= 0.40
     Davidson diagonalization with overlap
     ethr =  9.50E-07,  avg # of iterations =  2.3

     negative rho (up, down):  5.595E-06 0.000E+00

     total cpu time spent up to now is       52.9 secs

     total energy              =     -33.57475388 Ry
     Harris-Foulkes estimate   =     -33.57475961 Ry
     estimated scf accuracy    <       0.00001231 Ry

     iteration #  7     ecut=    30.00 Ry     beta= 0.40
     Davidson diagonalization with overlap
     ethr =  7.70E-08,  avg # of iterations =  2.4

     negative rho (up, down):  3.417E-06 0.000E+00

     total cpu time spent up to now is       60.9 secs

     total energy              =     -33.57475701 Ry
     Harris-Foulkes estimate   =     -33.57475736 Ry
     estimated scf accuracy    <       0.00000113 Ry

     iteration #  8     ecut=    30.00 Ry     beta= 0.40
     Davidson diagonalization with overlap
     ethr =  7.07E-09,  avg # of iterations =  2.0

     negative rho (up, down):  1.958E-06 0.000E+00

     total cpu time spent up to now is       68.8 secs

     total energy              =     -33.57475722 Ry
     Harris-Foulkes estimate   =     -33.57475727 Ry
     estimated scf accuracy    <       0.00000017 Ry

     iteration #  9     ecut=    30.00 Ry     beta= 0.40
     Davidson diagonalization with overlap
     ethr =  1.05E-09,  avg # of iterations =  2.0

     negative rho (up, down):  1.086E-06 0.000E+00

     total cpu time spent up to now is       76.1 secs

     total energy              =     -33.57475725 Ry
     Harris-Foulkes estimate   =     -33.57475724 Ry
     estimated scf accuracy    <          7.3E-09 Ry

     iteration # 10     ecut=    30.00 Ry     beta= 0.40
     Davidson diagonalization with overlap
     ethr =  4.58E-11,  avg # of iterations =  2.4

     negative rho (up, down):  5.620E-07 0.000E+00

     total cpu time spent up to now is       84.0 secs

     total energy              =     -33.57475725 Ry
     Harris-Foulkes estimate   =     -33.57475725 Ry
     estimated scf accuracy    <          3.5E-09 Ry

     iteration # 11     ecut=    30.00 Ry     beta= 0.40
     Davidson diagonalization with overlap
     ethr =  2.18E-11,  avg # of iterations =  2.0

     total cpu time spent up to now is       92.8 secs

     End of self-consistent calculation

          k = 0.0000 0.0000 0.0000 ( 11165 PWs)   bands (ev):

   -14.0288 -10.6484  -8.8798  -8.8754  -5.9519  -5.5402  -5.5374  -3.3935
    -1.9412  -1.9378  -1.1399   0.9151

     occupation numbers 
     1.0000   1.0000   1.0000   1.0000   1.0000   1.0000   1.0000   0.5475
     0.0000   0.0000   0.0000   0.0000

          k = 0.0000 0.1443 0.0000 ( 11177 PWs)   bands (ev):

   -13.9729 -10.9380  -8.9233  -8.5961  -5.8932  -5.5397  -5.3805  -3.5844
    -1.9731  -1.8091  -0.9699   1.0142

     occupation numbers 
     1.0000   1.0000   1.0000   1.0000   1.0000   1.0000   1.0000   1.0636
     0.0000   0.0000   0.0000   0.0000

          k = 0.0000 0.2887 0.0000 ( 11139 PWs)   bands (ev):

   -13.8152 -11.4857  -9.0264  -8.0942  -5.8290  -5.4112  -4.9672  -3.9470
    -2.0410  -1.5831  -0.5996   0.4959

     occupation numbers 
     1.0000   1.0000   1.0000   1.0000   1.0000   1.0000   1.0000   1.0017
     0.0000   0.0000   0.0000   0.0000

          k = 0.0000 0.4330 0.0000 ( 11122 PWs)   bands (ev):

   -13.6013 -11.9823  -9.1186  -7.7120  -5.7984  -5.2204  -4.4779  -4.1282
    -2.0672  -1.4629  -0.8208  -0.4868

     occupation numbers 
     1.0000   1.0000   1.0000   1.0000   1.0000   1.0000   1.0000   1.0000
     0.0000   0.0000   0.0000   0.0000

          k = 0.0000-0.5774 0.0000 ( 11134 PWs)   bands (ev):

   -13.4780 -12.2053  -9.1542  -7.5764  -5.7580  -5.2170  -4.2337  -4.0639
    -2.0378  -1.5560  -1.0516  -0.9453

     occupation numbers 
     1.0000   1.0000   1.0000   1.0000   1.0000   1.0000   1.0000   1.0001
     0.0000   0.0000   0.0000   0.0000

          k = 0.1250 0.2165 0.0000 ( 11137 PWs)   bands (ev):

   -13.8655 -11.3356  -9.0150  -8.1998  -5.8213  -5.5294  -5.0552  -3.8553
    -2.0419  -1.6238  -0.6875   0.4614

     occupation numbers 
     1.0000   1.0000   1.0000   1.0000   1.0000   1.0000   1.0000   1.0100
     0.0000   0.0000   0.0000   0.0000

          k = 0.1250 0.3608 0.0000 ( 11142 PWs)   bands (ev):

   -13.6735 -11.8300  -9.1424  -7.7189  -5.8424  -5.3372  -4.5768  -4.1346
    -2.1360  -1.4360  -0.7248  -0.0670

     occupation numbers 
     1.0000   1.0000   1.0000   1.0000   1.0000   1.0000   1.0000   1.0000
     0.0000   0.0000   0.0000   0.0000

          k = 0.1250 0.5052 0.0000 ( 11128 PWs)   bands (ev):

   -13.4801 -12.1965  -9.2245  -7.4044  -5.8950  -5.1519  -4.3034  -4.1206
    -2.2656  -1.3439  -0.9995  -0.6017

     occupation numbers 
     1.0000   1.0000   1.0000   1.0000   1.0000   1.0000   1.0000   1.0000
     0.0000   0.0000   0.0000   0.0000

          k = 0.2500 0.4330 0.0000 ( 11146 PWs)   bands (ev):

   -13.4822 -12.1875  -9.2873  -7.2109  -6.0517  -5.0980  -4.3872  -4.1523
    -2.3909  -1.2884  -0.9489  -0.0147

     occupation numbers 
     1.0000   1.0000   1.0000   1.0000   1.0000   1.0000   1.0000   1.0000
     0.0000   0.0000   0.0000   0.0000

          k = 0.2500 0.5774 0.0000 ( 11096 PWs)   bands (ev):

   -13.3723 -12.3589  -9.3470  -6.8943  -6.2640  -4.8919  -4.4253  -4.1412
    -2.5820  -1.0184  -0.7305  -0.5121

     occupation numbers 
     1.0000   1.0000   1.0000   1.0000   1.0000   1.0000   1.0000   1.0000
     0.0000   0.0000   0.0000   0.0000

          k =-0.1250 0.0722 0.0000 ( 11177 PWs)   bands (ev):

   -13.9730 -10.9372  -8.9264  -8.5939  -5.8931  -5.5413  -5.3787  -3.5839
    -1.9754  -1.8076  -0.9698   1.0133

     occupation numbers 
     1.0000   1.0000   1.0000   1.0000   1.0000   1.0000   1.0000   1.0632
     0.0000   0.0000   0.0000   0.0000

          k =-0.2500 0.1443 0.0000 ( 11139 PWs)   bands (ev):

   -13.8155 -11.4840  -9.0293  -8.0939  -5.8284  -5.4118  -4.9662  -3.9459
    -2.0425  -1.5832  -0.5993   0.4992

     occupation numbers 
     1.0000   1.0000   1.0000   1.0000   1.0000   1.0000   1.0000   1.0017
     0.0000   0.0000   0.0000   0.0000

          k =-0.3750 0.2165 0.0000 ( 11122 PWs)   bands (ev):

   -13.6022 -11.9796  -9.1212  -7.7138  -5.7960  -5.2209  -4.4781  -4.1263
    -2.0673  -1.4650  -0.8200  -0.4839

     occupation numbers 
     1.0000   1.0000   1.0000   1.0000   1.0000   1.0000   1.0000   1.0000
     0.0000   0.0000   0.0000   0.0000

          k = 0.5000-0.2887 0.0000 ( 11134 PWs)   bands (ev):

   -13.4794 -12.2021  -9.1567  -7.5791  -5.7542  -5.2181  -4.2347  -4.0614
    -2.0368  -1.5589  -1.0508  -0.9428

     occupation numbers 
     1.0000   1.0000   1.0000   1.0000   1.0000   1.0000   1.0000   1.0001
     0.0000   0.0000   0.0000   0.0000

          k =-0.1250 0.2165 0.0000 ( 11137 PWs)   bands (ev):

   -13.8657 -11.3342  -9.0179  -8.1986  -5.8216  -5.5306  -5.0531  -3.8545
    -2.0441  -1.6228  -0.6873   0.4650

     occupation numbers 
     1.0000   1.0000   1.0000   1.0000   1.0000   1.0000   1.0000   1.0101
     0.0000   0.0000   0.0000   0.0000

          k =-0.1250 0.3608 0.0000 ( 11142 PWs)   bands (ev):

   -13.6738 -11.8289  -9.1440  -7.7185  -5.8434  -5.3373  -4.5754  -4.1339
    -2.1376  -1.4348  -0.7231  -0.0657

     occupation numbers 
     1.0000   1.0000   1.0000   1.0000   1.0000   1.0000   1.0000   1.0000
     0.0000   0.0000   0.0000   0.0000

          k =-0.2500 0.2887 0.0000 ( 11142 PWs)   bands (ev):

   -13.6741 -11.8278  -9.1451  -7.7193  -5.8420  -5.3377  -4.5753  -4.1332
    -2.1377  -1.4357  -0.7230  -0.0651

     occupation numbers 
     1.0000   1.0000   1.0000   1.0000   1.0000   1.0000   1.0000   1.0000
     0.0000   0.0000   0.0000   0.0000

          k =-0.1250 0.5052 0.0000 ( 11128 PWs)   bands (ev):

   -13.4803 -12.1960  -9.2250  -7.4043  -5.8955  -5.1516  -4.3048  -4.1187
    -2.2662  -1.3414  -0.9992  -0.6040

     occupation numbers 
     1.0000   1.0000   1.0000   1.0000   1.0000   1.0000   1.0000   1.0000
     0.0000   0.0000   0.0000   0.0000

          k =-0.3750 0.3608 0.0000 ( 11128 PWs)   bands (ev):

   -13.4814 -12.1937  -9.2267  -7.4066  -5.8923  -5.1529  -4.3034  -4.1186
    -2.2660  -1.3436  -0.9985  -0.6010

     occupation numbers 
     1.0000   1.0000   1.0000   1.0000   1.0000   1.0000   1.0000   1.0000
     0.0000   0.0000   0.0000   0.0000

          k =-0.2500 0.4330 0.0000 ( 11146 PWs)   bands (ev):

   -13.4830 -12.1859  -9.2887  -7.2117  -6.0514  -5.0984  -4.3871  -4.1506
    -2.3916  -1.2860  -0.9482  -0.0165

     occupation numbers 
     1.0000   1.0000   1.0000   1.0000   1.0000   1.0000   1.0000   1.0000
     0.0000   0.0000   0.0000   0.0000

          k =-0.3750 0.5052 0.0000 ( 11096 PWs)   bands (ev):

   -13.3730 -12.3576  -9.3478  -6.8966  -6.2617  -4.8932  -4.4237  -4.1410
    -2.5822  -1.0188  -0.7276  -0.5132

     occupation numbers 
     1.0000   1.0000   1.0000   1.0000   1.0000   1.0000   1.0000   1.0000
     0.0000   0.0000   0.0000   0.0000

     the Fermi energy is    -3.3529 ev

!    total energy              =     -33.57475726 Ry
     Harris-Foulkes estimate   =     -33.57475725 Ry
     estimated scf accuracy    <          4.7E-11 Ry

     The total energy is the sum of the following terms:

     one-electron contribution =    -142.70563518 Ry
     hartree contribution      =      72.98019673 Ry
     xc contribution           =     -11.96905461 Ry
     ewald contribution        =      48.11931016 Ry
     smearing contrib. (-TS)   =       0.00042564 Ry

     convergence has been achieved in  11 iterations

     Forces acting on atoms (cartesian axes, Ry/au):

     atom    1 type  1   force =    -0.00333680    0.00192650    0.00184153
     atom    2 type  1   force =    -0.00009773   -0.00328358    0.00151721
     atom    3 type  1   force =     0.00279480    0.00172643    0.00151721
     atom    4 type  1   force =     0.00063973   -0.00036935   -0.00487594
     The non-local contrib.  to forces
     atom    1 type  1   force =    -0.06549593    0.03781410   -0.02636520
     atom    2 type  1   force =     0.00012893   -0.07481873   -0.02672490
     atom    3 type  1   force =     0.06485939    0.03729771   -0.02672490
     atom    4 type  1   force =     0.00066761   -0.00038545   -0.09417616
     The ionic contribution  to forces
     atom    1 type  1   force =    -0.80854611    0.46681431   -1.12674494
     atom    2 type  1   force =     0.00061698   -0.93053596   -1.12865452
     atom    3 type  1   force =     0.80617627    0.46473366   -1.12865452
     atom    4 type  1   force =     0.00175286   -0.00101201    3.38405398
     The local contribution  to forces
     atom    1 type  1   force =     0.86386648   -0.49875355    1.15224579
     atom    2 type  1   force =    -0.00083409    0.99423611    1.15416119
     atom    3 type  1   force =    -0.86145077   -0.49639571    1.15416119
     atom    4 type  1   force =    -0.00173151    0.00099969   -3.29668341
     The core correction contribution to forces
     atom    1 type  1   force =     0.00684067   -0.00394946    0.00270849
     atom    2 type  1   force =    -0.00000962    0.00783716    0.00273805
     atom    3 type  1   force =    -0.00679199   -0.00391025    0.00273805
     atom    4 type  1   force =    -0.00004928    0.00002845    0.00193001
     The Hubbard contrib.    to forces
     atom    1 type  1   force =     0.00000000    0.00000000    0.00000000
     atom    2 type  1   force =     0.00000000    0.00000000    0.00000000
     atom    3 type  1   force =     0.00000000    0.00000000    0.00000000
     atom    4 type  1   force =     0.00000000    0.00000000    0.00000000
     The SCF correction term to forces
     atom    1 type  1   force =    -0.00000191    0.00000110   -0.00000236
     atom    2 type  1   force =     0.00000008   -0.00000215   -0.00000236
     atom    3 type  1   force =     0.00000191    0.00000100   -0.00000236
     atom    4 type  1   force =     0.00000005   -0.00000003   -0.00000011

     Total force =     0.008291     Total SCF correction =     0.000006


     Computing stress (Cartesian axis) and pressure

          total   stress  (Ry/bohr**3)                   (kbar)     P=   -0.18
  -0.00000057   0.00000026   0.00000031         -0.08      0.04      0.05
   0.00000026  -0.00000027  -0.00000018          0.04     -0.04     -0.03
   0.00000031  -0.00000018  -0.00000288          0.05     -0.03     -0.42

     kinetic stress (kbar)    278.09     -0.00      0.01
                               -0.00    278.09     -0.01
                                0.01     -0.01    302.66

     local   stress (kbar)  -5443.33     -0.43     -0.12
                               -0.43  -5443.82      0.07
                               -0.12      0.07   5258.78

     nonloc. stress (kbar)    241.55      0.02      0.01
                                0.02    241.58     -0.01
                                0.01     -0.01    221.45

     hartree stress (kbar)   2550.67      0.10      0.02
                                0.10   2550.78     -0.01
                                0.02     -0.01  -2426.72

     exc-cor stress (kbar)    -17.86      0.00      0.00
                                0.00    -17.86     -0.00
                                0.00     -0.00    -20.50

     corecor stress (kbar)   -106.59     -0.00     -0.00
                               -0.00   -106.60      0.00
                               -0.00      0.00   -104.49

     ewald   stress (kbar)   2497.39      0.35      0.13
                                0.35   2497.79     -0.07
                                0.13     -0.07  -3231.60

     hubbard stress (kbar)      0.00      0.00      0.00
                                0.00      0.00      0.00
                                0.00      0.00      0.00

     london  stress (kbar)      0.00      0.00      0.00
                                0.00      0.00      0.00
                                0.00      0.00      0.00

     DFT-D3  stress (kbar)      0.00      0.00      0.00
                                0.00      0.00      0.00
                                0.00      0.00      0.00

     XDM     stress (kbar)      0.00      0.00      0.00
                                0.00      0.00      0.00
                                0.00      0.00      0.00

     dft-nl  stress (kbar)      0.00      0.00      0.00
                                0.00      0.00      0.00
                                0.00      0.00      0.00

     TS-vdW  stress (kbar)      0.00      0.00      0.00
                                0.00      0.00      0.00
                                0.00      0.00      0.00



     Writing output data file aiida.save/

     init_run     :      3.93s CPU      3.96s WALL (       1 calls)
     electrons    :     91.42s CPU     88.72s WALL (       1 calls)
     forces       :      2.35s CPU      2.21s WALL (       1 calls)
     stress       :      6.38s CPU      7.16s WALL (       1 calls)

     Called by init_run:
     wfcinit      :      2.96s CPU      2.91s WALL (       1 calls)
     wfcinit:atom :      0.04s CPU      0.04s WALL (      21 calls)
     wfcinit:wfcr :      2.70s CPU      2.61s WALL (      21 calls)
     potinit      :      0.42s CPU      0.48s WALL (       1 calls)
     hinit0       :      0.44s CPU      0.46s WALL (       1 calls)

     Called by electrons:
     c_bands      :     80.29s CPU     77.16s WALL (      11 calls)
     sum_band     :      7.75s CPU      7.87s WALL (      11 calls)
     v_of_rho     :      2.71s CPU      2.99s WALL (      12 calls)
     v_h          :      0.23s CPU      0.24s WALL (      12 calls)
     v_xc         :      2.97s CPU      3.30s WALL (      14 calls)
     mix_rho      :      0.54s CPU      0.55s WALL (      11 calls)

     Called by c_bands:
     init_us_2    :      2.03s CPU      1.93s WALL (     525 calls)
     cegterg      :     68.03s CPU     65.29s WALL (     231 calls)

     Called by sum_band:

     Called by *egterg:
     h_psi        :     61.31s CPU     58.25s WALL (     854 calls)
     g_psi        :      0.37s CPU      0.26s WALL (     602 calls)
     cdiaghg      :      0.64s CPU      0.78s WALL (     833 calls)
     cegterg:over :      3.21s CPU      3.35s WALL (     602 calls)
     cegterg:upda :      1.55s CPU      1.39s WALL (     602 calls)
     cegterg:last :      0.65s CPU      0.49s WALL (     231 calls)

     Called by h_psi:
     h_psi:pot    :     61.15s CPU     58.11s WALL (     854 calls)
     h_psi:calbec :      6.24s CPU      5.58s WALL (     854 calls)
     vloc_psi     :     50.39s CPU     48.62s WALL (     854 calls)
     add_vuspsi   :      4.51s CPU      3.91s WALL (     854 calls)

     General routines
     calbec       :      8.35s CPU      7.34s WALL (     959 calls)
     fft          :      2.77s CPU      3.00s WALL (     166 calls)
     ffts         :      0.09s CPU      0.09s WALL (      23 calls)
     fftw         :     49.12s CPU     47.73s WALL (   17566 calls)
     interpolate  :      0.27s CPU      0.27s WALL (      12 calls)

     Parallel routines
     fft_scatt_xy :      8.44s CPU      8.32s WALL (   17755 calls)
     fft_scatt_yz :     12.87s CPU     12.69s WALL (   17755 calls)

     PWSCF        :   1m44.27s CPU   1m42.33s WALL


   This run was terminated on:  19:57:49   8Jan2025            

=------------------------------------------------------------------------------=
   JOB DONE.
=------------------------------------------------------------------------------=
