
     Program BANDS v.6.4.1 starts on  8Jan2025 at 20:41:31 

     This program is part of the open-source Quantum ESPRESSO suite
     for quantum simulation of materials; please cite
         "P. Giannozzi et al., J. Phys.:Condens. Matter 21 395502 (2009);
         "P. Giannozzi et al., J. Phys.:Condens. Matter 29 465901 (2017);
          URL http://www.quantum-espresso.org", 
     in publications or presentations arising from this work. More details at
     http://www.quantum-espresso.org/quote

     Parallel version (MPI), running on     1 processors

     MPI processes distributed on     1 nodes

     Reading data from directory:
     ./out/aiida.save/

     IMPORTANT: XC functional enforced from input :
     Exchange-correlation      = PBE ( 1  4  3  4 0 0)
     Any further DFT definition will be discarded
     Please, verify this is what you really want


     G-vector sticks info
     --------------------
     sticks:   dense  smooth     PW     G-vecs:    dense   smooth      PW
     Sum        2107    1057    301               262273    92687   14147

     high-symmetry point:  0.0000 0.0000 0.0000   x coordinate   0.0000
     high-symmetry point:  0.0000 0.5774 0.0000   x coordinate   0.5774
     high-symmetry point:  0.3333 0.5773 0.0000   x coordinate   0.9107
     high-symmetry point:  0.0000 0.0000 0.0000   x coordinate   1.5773

     Plottable bands (eV) written to file hhk-2.bands.gnu
     Bands written to file hhk-2.bands

 **************************************************************************

                    xk=(   0.00000,   0.00000,   0.00000  )

     point group C_s (m)    
     there are  2 classes
     the character table:

       E     s    
A'     1.00  1.00
A''    1.00 -1.00

     the symmetry operations in each class and the name of the first element:

     E        1
                                                                 
     s        2
                                                                 

     Band symmetry, C_s (m)     point group:

     e(  1 -  1) =    -13.86102  eV     1   --> A'             
     e(  2 -  2) =    -10.59566  eV     1   --> A'             
     e(  3 -  3) =     -8.96396  eV     1   --> A''            
     e(  4 -  4) =     -8.95967  eV     1   --> A'             
     e(  5 -  5) =     -5.87341  eV     1   --> A'             
     e(  6 -  6) =     -5.53359  eV     1   --> A'             
     e(  7 -  7) =     -5.53087  eV     1   --> A''            
     e(  8 -  8) =     -3.44653  eV     1   --> A'             
     e(  9 -  9) =     -2.06686  eV     1   --> A''            
     e( 10 - 10) =     -2.06356  eV     1   --> A'             
     e( 11 - 11) =     -1.19143  eV     1   --> A'             
     e( 12 - 12) =      0.88661  eV     1   --> A'             

 **************************************************************************

 **************************************************************************

                    xk=(   0.00000,   0.01925,   0.00000  )

     point group C_1 (1)    
     there are  1 classes
     the character table:

       E    
A      1.00

     the symmetry operations in each class and the name of the first element:

     E        1
                                                                 

     Band symmetry, C_1 (1)     point group:

     e(  1 -  1) =    -13.86006  eV     1   --> A              
     e(  2 -  2) =    -10.60193  eV     1   --> A              
     e(  3 -  3) =     -8.96212  eV     1   --> A              
     e(  4 -  4) =     -8.95590  eV     1   --> A              
     e(  5 -  5) =     -5.87240  eV     1   --> A              
     e(  6 -  6) =     -5.53243  eV     1   --> A              
     e(  7 -  7) =     -5.52958  eV     1   --> A              
     e(  8 -  8) =     -3.45031  eV     1   --> A              
     e(  9 -  9) =     -2.06574  eV     1   --> A              
     e( 10 - 10) =     -2.06227  eV     1   --> A              
     e( 11 - 11) =     -1.18869  eV     1   --> A              
     e( 12 - 12) =      0.88884  eV     1   --> A              

 **************************************************************************

 **************************************************************************

                    xk=(   0.00000,   0.03849,   0.00000  )

     Band symmetry, C_1 (1)     point group:

     e(  1 -  1) =    -13.85716  eV     1   --> A              
     e(  2 -  2) =    -10.62042  eV     1   --> A              
     e(  3 -  3) =     -8.96391  eV     1   --> A              
     e(  4 -  4) =     -8.93763  eV     1   --> A              
     e(  5 -  5) =     -5.86939  eV     1   --> A              
     e(  6 -  6) =     -5.53267  eV     1   --> A              
     e(  7 -  7) =     -5.52200  eV     1   --> A              
     e(  8 -  8) =     -3.46152  eV     1   --> A              
     e(  9 -  9) =     -2.06699  eV     1   --> A              
     e( 10 - 10) =     -2.05389  eV     1   --> A              
     e( 11 - 11) =     -1.18053  eV     1   --> A              
     e( 12 - 12) =      0.89535  eV     1   --> A              

 **************************************************************************

 **************************************************************************

                    xk=(   0.00000,   0.05774,   0.00000  )

     Band symmetry, C_1 (1)     point group:

     e(  1 -  1) =    -13.85233  eV     1   --> A              
     e(  2 -  2) =    -10.65023  eV     1   --> A              
     e(  3 -  3) =     -8.96760  eV     1   --> A              
     e(  4 -  4) =     -8.90749  eV     1   --> A              
     e(  5 -  5) =     -5.86453  eV     1   --> A              
     e(  6 -  6) =     -5.53362  eV     1   --> A              
     e(  7 -  7) =     -5.50867  eV     1   --> A              
     e(  8 -  8) =     -3.47978  eV     1   --> A              
     e(  9 -  9) =     -2.06993  eV     1   --> A              
     e( 10 - 10) =     -2.03947  eV     1   --> A              
     e( 11 - 11) =     -1.16703  eV     1   --> A              
     e( 12 - 12) =      0.90561  eV     1   --> A              

 **************************************************************************

 **************************************************************************

                    xk=(   0.00000,   0.07698,   0.00000  )

     Band symmetry, C_1 (1)     point group:

     e(  1 -  1) =    -13.84560  eV     1   --> A              
     e(  2 -  2) =    -10.69006  eV     1   --> A              
     e(  3 -  3) =     -8.97276  eV     1   --> A              
     e(  4 -  4) =     -8.86718  eV     1   --> A              
     e(  5 -  5) =     -5.85801  eV     1   --> A              
     e(  6 -  6) =     -5.53463  eV     1   --> A              
     e(  7 -  7) =     -5.49006  eV     1   --> A              
     e(  8 -  8) =     -3.50450  eV     1   --> A              
     e(  9 -  9) =     -2.07407  eV     1   --> A              
     e( 10 - 10) =     -2.02002  eV     1   --> A              
     e( 11 - 11) =     -1.14835  eV     1   --> A              
     e( 12 - 12) =      0.91850  eV     1   --> A              

 **************************************************************************

 **************************************************************************

                    xk=(   0.00000,   0.09623,   0.00000  )

     Band symmetry, C_1 (1)     point group:

     e(  1 -  1) =    -13.83697  eV     1   --> A              
     e(  2 -  2) =    -10.73842  eV     1   --> A              
     e(  3 -  3) =     -8.97926  eV     1   --> A              
     e(  4 -  4) =     -8.81828  eV     1   --> A              
     e(  5 -  5) =     -5.85015  eV     1   --> A              
     e(  6 -  6) =     -5.53527  eV     1   --> A              
     e(  7 -  7) =     -5.46634  eV     1   --> A              
     e(  8 -  8) =     -3.53496  eV     1   --> A              
     e(  9 -  9) =     -2.07928  eV     1   --> A              
     e( 10 - 10) =     -1.99625  eV     1   --> A              
     e( 11 - 11) =     -1.12471  eV     1   --> A              
     e( 12 - 12) =      0.93190  eV     1   --> A              

 **************************************************************************

 **************************************************************************

                    xk=(   0.00000,   0.11547,   0.00000  )

     Band symmetry, C_1 (1)     point group:

     e(  1 -  1) =    -13.82646  eV     1   --> A              
     e(  2 -  2) =    -10.79379  eV     1   --> A              
     e(  3 -  3) =     -8.98700  eV     1   --> A              
     e(  4 -  4) =     -8.76239  eV     1   --> A              
     e(  5 -  5) =     -5.84140  eV     1   --> A              
     e(  6 -  6) =     -5.53497  eV     1   --> A              
     e(  7 -  7) =     -5.43769  eV     1   --> A              
     e(  8 -  8) =     -3.57034  eV     1   --> A              
     e(  9 -  9) =     -2.08546  eV     1   --> A              
     e( 10 - 10) =     -1.96896  eV     1   --> A              
     e( 11 - 11) =     -1.09640  eV     1   --> A              
     e( 12 - 12) =      0.94172  eV     1   --> A              

 **************************************************************************

 **************************************************************************

                    xk=(   0.00000,   0.13472,   0.00000  )

     Band symmetry, C_1 (1)     point group:

     e(  1 -  1) =    -13.81412  eV     1   --> A              
     e(  2 -  2) =    -10.85477  eV     1   --> A              
     e(  3 -  3) =     -8.99585  eV     1   --> A              
     e(  4 -  4) =     -8.70102  eV     1   --> A              
     e(  5 -  5) =     -5.83229  eV     1   --> A              
     e(  6 -  6) =     -5.53308  eV     1   --> A              
     e(  7 -  7) =     -5.40431  eV     1   --> A              
     e(  8 -  8) =     -3.60980  eV     1   --> A              
     e(  9 -  9) =     -2.09250  eV     1   --> A              
     e( 10 - 10) =     -1.93893  eV     1   --> A              
     e( 11 - 11) =     -1.06382  eV     1   --> A              
     e( 12 - 12) =      0.94041  eV     1   --> A              

 **************************************************************************

 **************************************************************************

                    xk=(   0.00000,   0.15396,   0.00000  )

     Band symmetry, C_1 (1)     point group:

     e(  1 -  1) =    -13.79997  eV     1   --> A              
     e(  2 -  2) =    -10.92010  eV     1   --> A              
     e(  3 -  3) =     -9.00569  eV     1   --> A              
     e(  4 -  4) =     -8.63551  eV     1   --> A              
     e(  5 -  5) =     -5.82348  eV     1   --> A              
     e(  6 -  6) =     -5.52884  eV     1   --> A              
     e(  7 -  7) =     -5.36641  eV     1   --> A              
     e(  8 -  8) =     -3.65250  eV     1   --> A              
     e(  9 -  9) =     -2.10027  eV     1   --> A              
     e( 10 - 10) =     -1.90691  eV     1   --> A              
     e( 11 - 11) =     -1.02754  eV     1   --> A              
     e( 12 - 12) =      0.91781  eV     1   --> A              

 **************************************************************************

 **************************************************************************

                    xk=(   0.00000,   0.17321,   0.00000  )

     Band symmetry, C_1 (1)     point group:

     e(  1 -  1) =    -13.78406  eV     1   --> A              
     e(  2 -  2) =    -10.98870  eV     1   --> A              
     e(  3 -  3) =     -9.01636  eV     1   --> A              
     e(  4 -  4) =     -8.56707  eV     1   --> A              
     e(  5 -  5) =     -5.81564  eV     1   --> A              
     e(  6 -  6) =     -5.52148  eV     1   --> A              
     e(  7 -  7) =     -5.32427  eV     1   --> A              
     e(  8 -  8) =     -3.69763  eV     1   --> A              
     e(  9 -  9) =     -2.10863  eV     1   --> A              
     e( 10 - 10) =     -1.87359  eV     1   --> A              
     e( 11 - 11) =     -0.98824  eV     1   --> A              
     e( 12 - 12) =      0.86810  eV     1   --> A              

 **************************************************************************

 **************************************************************************

                    xk=(   0.00000,   0.19245,   0.00000  )

     Band symmetry, C_1 (1)     point group:

     e(  1 -  1) =    -13.76644  eV     1   --> A              
     e(  2 -  2) =    -11.05965  eV     1   --> A              
     e(  3 -  3) =     -9.02773  eV     1   --> A              
     e(  4 -  4) =     -8.49674  eV     1   --> A              
     e(  5 -  5) =     -5.80937  eV     1   --> A              
     e(  6 -  6) =     -5.51035  eV     1   --> A              
     e(  7 -  7) =     -5.27817  eV     1   --> A              
     e(  8 -  8) =     -3.74440  eV     1   --> A              
     e(  9 -  9) =     -2.11744  eV     1   --> A              
     e( 10 - 10) =     -1.83963  eV     1   --> A              
     e( 11 - 11) =     -0.94692  eV     1   --> A              
     e( 12 - 12) =      0.79424  eV     1   --> A              

 **************************************************************************

 **************************************************************************

                    xk=(   0.00000,   0.21170,   0.00000  )

     Band symmetry, C_1 (1)     point group:

     e(  1 -  1) =    -13.74716  eV     1   --> A              
     e(  2 -  2) =    -11.13217  eV     1   --> A              
     e(  3 -  3) =     -9.03964  eV     1   --> A              
     e(  4 -  4) =     -8.42543  eV     1   --> A              
     e(  5 -  5) =     -5.80507  eV     1   --> A              
     e(  6 -  6) =     -5.49503  eV     1   --> A              
     e(  7 -  7) =     -5.22843  eV     1   --> A              
     e(  8 -  8) =     -3.79205  eV     1   --> A              
     e(  9 -  9) =     -2.12654  eV     1   --> A              
     e( 10 - 10) =     -1.80558  eV     1   --> A              
     e( 11 - 11) =     -0.90485  eV     1   --> A              
     e( 12 - 12) =      0.70334  eV     1   --> A              

 **************************************************************************

 **************************************************************************

                    xk=(   0.00000,   0.23094,   0.00000  )

     Band symmetry, C_1 (1)     point group:

     e(  1 -  1) =    -13.72632  eV     1   --> A              
     e(  2 -  2) =    -11.20558  eV     1   --> A              
     e(  3 -  3) =     -9.05195  eV     1   --> A              
     e(  4 -  4) =     -8.35394  eV     1   --> A              
     e(  5 -  5) =     -5.80286  eV     1   --> A              
     e(  6 -  6) =     -5.47547  eV     1   --> A              
     e(  7 -  7) =     -5.17540  eV     1   --> A              
     e(  8 -  8) =     -3.83982  eV     1   --> A              
     e(  9 -  9) =     -2.13579  eV     1   --> A              
     e( 10 - 10) =     -1.77198  eV     1   --> A              
     e( 11 - 11) =     -0.86378  eV     1   --> A              
     e( 12 - 12) =      0.60268  eV     1   --> A              

 **************************************************************************

 **************************************************************************

                    xk=(   0.00000,   0.25019,   0.00000  )

     Band symmetry, C_1 (1)     point group:

     e(  1 -  1) =    -13.70399  eV     1   --> A              
     e(  2 -  2) =    -11.27932  eV     1   --> A              
     e(  3 -  3) =     -9.06448  eV     1   --> A              
     e(  4 -  4) =     -8.28296  eV     1   --> A              
     e(  5 -  5) =     -5.80256  eV     1   --> A              
     e(  6 -  6) =     -5.45193  eV     1   --> A              
     e(  7 -  7) =     -5.11945  eV     1   --> A              
     e(  8 -  8) =     -3.88696  eV     1   --> A              
     e(  9 -  9) =     -2.14502  eV     1   --> A              
     e( 10 - 10) =     -1.73928  eV     1   --> A              
     e( 11 - 11) =     -0.82602  eV     1   --> A              
     e( 12 - 12) =      0.49894  eV     1   --> A              

 **************************************************************************

 **************************************************************************

                    xk=(   0.00000,   0.26943,   0.00000  )

     Band symmetry, C_1 (1)     point group:

     e(  1 -  1) =    -13.68028  eV     1   --> A              
     e(  2 -  2) =    -11.35287  eV     1   --> A              
     e(  3 -  3) =     -9.07712  eV     1   --> A              
     e(  4 -  4) =     -8.21314  eV     1   --> A              
     e(  5 -  5) =     -5.80382  eV     1   --> A              
     e(  6 -  6) =     -5.42504  eV     1   --> A              
     e(  7 -  7) =     -5.06098  eV     1   --> A              
     e(  8 -  8) =     -3.93274  eV     1   --> A              
     e(  9 -  9) =     -2.15407  eV     1   --> A              
     e( 10 - 10) =     -1.70793  eV     1   --> A              
     e( 11 - 11) =     -0.79473  eV     1   --> A              
     e( 12 - 12) =      0.38222  eV     1   --> A              

 **************************************************************************

 **************************************************************************

                    xk=(   0.00000,   0.28868,   0.00000  )

     Band symmetry, C_1 (1)     point group:

     e(  1 -  1) =    -13.65531  eV     1   --> A              
     e(  2 -  2) =    -11.42578  eV     1   --> A              
     e(  3 -  3) =     -9.08970  eV     1   --> A              
     e(  4 -  4) =     -8.14502  eV     1   --> A              
     e(  5 -  5) =     -5.80618  eV     1   --> A              
     e(  6 -  6) =     -5.39558  eV     1   --> A              
     e(  7 -  7) =     -5.00045  eV     1   --> A              
     e(  8 -  8) =     -3.97635  eV     1   --> A              
     e(  9 -  9) =     -2.16278  eV     1   --> A              
     e( 10 - 10) =     -1.67836  eV     1   --> A              
     e( 11 - 11) =     -0.77383  eV     1   --> A              
     e( 12 - 12) =      0.24448  eV     1   --> A              

 **************************************************************************

 **************************************************************************

                    xk=(   0.00000,   0.30792,   0.00000  )

     Band symmetry, C_1 (1)     point group:

     e(  1 -  1) =    -13.62923  eV     1   --> A              
     e(  2 -  2) =    -11.49761  eV     1   --> A              
     e(  3 -  3) =     -9.10210  eV     1   --> A              
     e(  4 -  4) =     -8.07913  eV     1   --> A              
     e(  5 -  5) =     -5.80915  eV     1   --> A              
     e(  6 -  6) =     -5.36449  eV     1   --> A              
     e(  7 -  7) =     -4.93834  eV     1   --> A              
     e(  8 -  8) =     -4.01701  eV     1   --> A              
     e(  9 -  9) =     -2.17099  eV     1   --> A              
     e( 10 - 10) =     -1.65105  eV     1   --> A              
     e( 11 - 11) =     -0.76769  eV     1   --> A              
     e( 12 - 12) =      0.10773  eV     1   --> A              

 **************************************************************************

 **************************************************************************

                    xk=(   0.00000,   0.32717,   0.00000  )

     Band symmetry, C_1 (1)     point group:

     e(  1 -  1) =    -13.60221  eV     1   --> A              
     e(  2 -  2) =    -11.56797  eV     1   --> A              
     e(  3 -  3) =     -9.11419  eV     1   --> A              
     e(  4 -  4) =     -8.01591  eV     1   --> A              
     e(  5 -  5) =     -5.81232  eV     1   --> A              
     e(  6 -  6) =     -5.33280  eV     1   --> A              
     e(  7 -  7) =     -4.87520  eV     1   --> A              
     e(  8 -  8) =     -4.05386  eV     1   --> A              
     e(  9 -  9) =     -2.17855  eV     1   --> A              
     e( 10 - 10) =     -1.62655  eV     1   --> A              
     e( 11 - 11) =     -0.77995  eV     1   --> A              
     e( 12 - 12) =     -0.02679  eV     1   --> A              

 **************************************************************************

 **************************************************************************

                    xk=(   0.00000,   0.34641,   0.00000  )

     Band symmetry, C_1 (1)     point group:

     e(  1 -  1) =    -13.57445  eV     1   --> A              
     e(  2 -  2) =    -11.63645  eV     1   --> A              
     e(  3 -  3) =     -9.12586  eV     1   --> A              
     e(  4 -  4) =     -7.95580  eV     1   --> A              
     e(  5 -  5) =     -5.81534  eV     1   --> A              
     e(  6 -  6) =     -5.30159  eV     1   --> A              
     e(  7 -  7) =     -4.81161  eV     1   --> A              
     e(  8 -  8) =     -4.08610  eV     1   --> A              
     e(  9 -  9) =     -2.18531  eV     1   --> A              
     e( 10 - 10) =     -1.60553  eV     1   --> A              
     e( 11 - 11) =     -0.81167  eV     1   --> A              
     e( 12 - 12) =     -0.15804  eV     1   --> A              

 **************************************************************************

 **************************************************************************

                    xk=(   0.00000,   0.36566,   0.00000  )

     Band symmetry, C_1 (1)     point group:

     e(  1 -  1) =    -13.54621  eV     1   --> A              
     e(  2 -  2) =    -11.70263  eV     1   --> A              
     e(  3 -  3) =     -9.13698  eV     1   --> A              
     e(  4 -  4) =     -7.89918  eV     1   --> A              
     e(  5 -  5) =     -5.81793  eV     1   --> A              
     e(  6 -  6) =     -5.27196  eV     1   --> A              
     e(  7 -  7) =     -4.74823  eV     1   --> A              
     e(  8 -  8) =     -4.11292  eV     1   --> A              
     e(  9 -  9) =     -2.19114  eV     1   --> A              
     e( 10 - 10) =     -1.58885  eV     1   --> A              
     e( 11 - 11) =     -0.86017  eV     1   --> A              
     e( 12 - 12) =     -0.28512  eV     1   --> A              

 **************************************************************************

 **************************************************************************

                    xk=(   0.00000,   0.38490,   0.00000  )

     Band symmetry, C_1 (1)     point group:

     e(  1 -  1) =    -13.51778  eV     1   --> A              
     e(  2 -  2) =    -11.76610  eV     1   --> A              
     e(  3 -  3) =     -9.14747  eV     1   --> A              
     e(  4 -  4) =     -7.84640  eV     1   --> A              
     e(  5 -  5) =     -5.81988  eV     1   --> A              
     e(  6 -  6) =     -5.24495  eV     1   --> A              
     e(  7 -  7) =     -4.68576  eV     1   --> A              
     e(  8 -  8) =     -4.13367  eV     1   --> A              
     e(  9 -  9) =     -2.19593  eV     1   --> A              
     e( 10 - 10) =     -1.57768  eV     1   --> A              
     e( 11 - 11) =     -0.91967  eV     1   --> A              
     e( 12 - 12) =     -0.40705  eV     1   --> A              

 **************************************************************************

 **************************************************************************

                    xk=(   0.00000,   0.40415,   0.00000  )

     Band symmetry, C_1 (1)     point group:

     e(  1 -  1) =    -13.48949  eV     1   --> A              
     e(  2 -  2) =    -11.82638  eV     1   --> A              
     e(  3 -  3) =     -9.15723  eV     1   --> A              
     e(  4 -  4) =     -7.79776  eV     1   --> A              
     e(  5 -  5) =     -5.82108  eV     1   --> A              
     e(  6 -  6) =     -5.22145  eV     1   --> A              
     e(  7 -  7) =     -4.62499  eV     1   --> A              
     e(  8 -  8) =     -4.14789  eV     1   --> A              
     e(  9 -  9) =     -2.19957  eV     1   --> A              
     e( 10 - 10) =     -1.57344  eV     1   --> A              
     e( 11 - 11) =     -0.98313  eV     1   --> A              
     e( 12 - 12) =     -0.52289  eV     1   --> A              

 **************************************************************************

 **************************************************************************

                    xk=(   0.00000,   0.42339,   0.00000  )

     Band symmetry, C_1 (1)     point group:

     e(  1 -  1) =    -13.46177  eV     1   --> A              
     e(  2 -  2) =    -11.88296  eV     1   --> A              
     e(  3 -  3) =     -9.16618  eV     1   --> A              
     e(  4 -  4) =     -7.75355  eV     1   --> A              
     e(  5 -  5) =     -5.82152  eV     1   --> A              
     e(  6 -  6) =     -5.20210  eV     1   --> A              
     e(  7 -  7) =     -4.56678  eV     1   --> A              
     e(  8 -  8) =     -4.15553  eV     1   --> A              
     e(  9 -  9) =     -2.20204  eV     1   --> A              
     e( 10 - 10) =     -1.57775  eV     1   --> A              
     e( 11 - 11) =     -1.04389  eV     1   --> A              
     e( 12 - 12) =     -0.63167  eV     1   --> A              

 **************************************************************************

 **************************************************************************

                    xk=(   0.00000,   0.44264,   0.00000  )

     Band symmetry, C_1 (1)     point group:

     e(  1 -  1) =    -13.43509  eV     1   --> A              
     e(  2 -  2) =    -11.93528  eV     1   --> A              
     e(  3 -  3) =     -9.17424  eV     1   --> A              
     e(  4 -  4) =     -7.71401  eV     1   --> A              
     e(  5 -  5) =     -5.82122  eV     1   --> A              
     e(  6 -  6) =     -5.18718  eV     1   --> A              
     e(  7 -  7) =     -4.51206  eV     1   --> A              
     e(  8 -  8) =     -4.15694  eV     1   --> A              
     e(  9 -  9) =     -2.20332  eV     1   --> A              
     e( 10 - 10) =     -1.59177  eV     1   --> A              
     e( 11 - 11) =     -1.09648  eV     1   --> A              
     e( 12 - 12) =     -0.73223  eV     1   --> A              

 **************************************************************************

 **************************************************************************

                    xk=(   0.00000,   0.46188,   0.00000  )

     Band symmetry, C_1 (1)     point group:

     e(  1 -  1) =    -13.40999  eV     1   --> A              
     e(  2 -  2) =    -11.98273  eV     1   --> A              
     e(  3 -  3) =     -9.18136  eV     1   --> A              
     e(  4 -  4) =     -7.67934  eV     1   --> A              
     e(  5 -  5) =     -5.82028  eV     1   --> A              
     e(  6 -  6) =     -5.17655  eV     1   --> A              
     e(  7 -  7) =     -4.46178  eV     1   --> A              
     e(  8 -  8) =     -4.15304  eV     1   --> A              
     e(  9 -  9) =     -2.20350  eV     1   --> A              
     e( 10 - 10) =     -1.61528  eV     1   --> A              
     e( 11 - 11) =     -1.13762  eV     1   --> A              
     e( 12 - 12) =     -0.82338  eV     1   --> A              

 **************************************************************************

 **************************************************************************

                    xk=(   0.00000,   0.48113,   0.00000  )

     Band symmetry, C_1 (1)     point group:

     e(  1 -  1) =    -13.38709  eV     1   --> A              
     e(  2 -  2) =    -12.02464  eV     1   --> A              
     e(  3 -  3) =     -9.18747  eV     1   --> A              
     e(  4 -  4) =     -7.64973  eV     1   --> A              
     e(  5 -  5) =     -5.81890  eV     1   --> A              
     e(  6 -  6) =     -5.16971  eV     1   --> A              
     e(  7 -  7) =     -4.41697  eV     1   --> A              
     e(  8 -  8) =     -4.14521  eV     1   --> A              
     e(  9 -  9) =     -2.20274  eV     1   --> A              
     e( 10 - 10) =     -1.64589  eV     1   --> A              
     e( 11 - 11) =     -1.16689  eV     1   --> A              
     e( 12 - 12) =     -0.90390  eV     1   --> A              

 **************************************************************************

 **************************************************************************

                    xk=(   0.00000,   0.50037,   0.00000  )

     Band symmetry, C_1 (1)     point group:

     e(  1 -  1) =    -13.36705  eV     1   --> A              
     e(  2 -  2) =    -12.06029  eV     1   --> A              
     e(  3 -  3) =     -9.19254  eV     1   --> A              
     e(  4 -  4) =     -7.62532  eV     1   --> A              
     e(  5 -  5) =     -5.81729  eV     1   --> A              
     e(  6 -  6) =     -5.16588  eV     1   --> A              
     e(  7 -  7) =     -4.37860  eV     1   --> A              
     e(  8 -  8) =     -4.13516  eV     1   --> A              
     e(  9 -  9) =     -2.20130  eV     1   --> A              
     e( 10 - 10) =     -1.67941  eV     1   --> A              
     e( 11 - 11) =     -1.18605  eV     1   --> A              
     e( 12 - 12) =     -0.97241  eV     1   --> A              

 **************************************************************************

 **************************************************************************

                    xk=(   0.00000,   0.51962,   0.00000  )

     Band symmetry, C_1 (1)     point group:

     e(  1 -  1) =    -13.35054  eV     1   --> A              
     e(  2 -  2) =    -12.08898  eV     1   --> A              
     e(  3 -  3) =     -9.19651  eV     1   --> A              
     e(  4 -  4) =     -7.60622  eV     1   --> A              
     e(  5 -  5) =     -5.81568  eV     1   --> A              
     e(  6 -  6) =     -5.16417  eV     1   --> A              
     e(  7 -  7) =     -4.34759  eV     1   --> A              
     e(  8 -  8) =     -4.12475  eV     1   --> A              
     e(  9 -  9) =     -2.19953  eV     1   --> A              
     e( 10 - 10) =     -1.71110  eV     1   --> A              
     e( 11 - 11) =     -1.19776  eV     1   --> A              
     e( 12 - 12) =     -1.02753  eV     1   --> A              

 **************************************************************************

 **************************************************************************

                    xk=(   0.00000,   0.53886,   0.00000  )

     Band symmetry, C_1 (1)     point group:

     e(  1 -  1) =    -13.33820  eV     1   --> A              
     e(  2 -  2) =    -12.11004  eV     1   --> A              
     e(  3 -  3) =     -9.19937  eV     1   --> A              
     e(  4 -  4) =     -7.59251  eV     1   --> A              
     e(  5 -  5) =     -5.81433  eV     1   --> A              
     e(  6 -  6) =     -5.16368  eV     1   --> A              
     e(  7 -  7) =     -4.32480  eV     1   --> A              
     e(  8 -  8) =     -4.11580  eV     1   --> A              
     e(  9 -  9) =     -2.19785  eV     1   --> A              
     e( 10 - 10) =     -1.73677  eV     1   --> A              
     e( 11 - 11) =     -1.20443  eV     1   --> A              
     e( 12 - 12) =     -1.06801  eV     1   --> A              

 **************************************************************************

 **************************************************************************

                    xk=(   0.00000,   0.55811,   0.00000  )

     Band symmetry, C_1 (1)     point group:

     e(  1 -  1) =    -13.33056  eV     1   --> A              
     e(  2 -  2) =    -12.12292  eV     1   --> A              
     e(  3 -  3) =     -9.20110  eV     1   --> A              
     e(  4 -  4) =     -7.58427  eV     1   --> A              
     e(  5 -  5) =     -5.81342  eV     1   --> A              
     e(  6 -  6) =     -5.16371  eV     1   --> A              
     e(  7 -  7) =     -4.31085  eV     1   --> A              
     e(  8 -  8) =     -4.10977  eV     1   --> A              
     e(  9 -  9) =     -2.19665  eV     1   --> A              
     e( 10 - 10) =     -1.75340  eV     1   --> A              
     e( 11 - 11) =     -1.20777  eV     1   --> A              
     e( 12 - 12) =     -1.09278  eV     1   --> A              

 **************************************************************************

 **************************************************************************

                    xk=(   0.00000,   0.57735,   0.00000  )

     Band symmetry, C_1 (1)     point group:

     e(  1 -  1) =    -13.32797  eV     1   --> A              
     e(  2 -  2) =    -12.12726  eV     1   --> A              
     e(  3 -  3) =     -9.20167  eV     1   --> A              
     e(  4 -  4) =     -7.58152  eV     1   --> A              
     e(  5 -  5) =     -5.81310  eV     1   --> A              
     e(  6 -  6) =     -5.16377  eV     1   --> A              
     e(  7 -  7) =     -4.30615  eV     1   --> A              
     e(  8 -  8) =     -4.10764  eV     1   --> A              
     e(  9 -  9) =     -2.19622  eV     1   --> A              
     e( 10 - 10) =     -1.75915  eV     1   --> A              
     e( 11 - 11) =     -1.20878  eV     1   --> A              
     e( 12 - 12) =     -1.10112  eV     1   --> A              

 **************************************************************************

 **************************************************************************

                    xk=(   0.01111,   0.57735,   0.00000  )

     Band symmetry, C_1 (1)     point group:

     e(  1 -  1) =    -13.32770  eV     1   --> A              
     e(  2 -  2) =    -12.12766  eV     1   --> A              
     e(  3 -  3) =     -9.20234  eV     1   --> A              
     e(  4 -  4) =     -7.57978  eV     1   --> A              
     e(  5 -  5) =     -5.81431  eV     1   --> A              
     e(  6 -  6) =     -5.16319  eV     1   --> A              
     e(  7 -  7) =     -4.30598  eV     1   --> A              
     e(  8 -  8) =     -4.10815  eV     1   --> A              
     e(  9 -  9) =     -2.19999  eV     1   --> A              
     e( 10 - 10) =     -1.75499  eV     1   --> A              
     e( 11 - 11) =     -1.20868  eV     1   --> A              
     e( 12 - 12) =     -1.10004  eV     1   --> A              

 **************************************************************************

 **************************************************************************

                    xk=(   0.02222,   0.57735,   0.00000  )

     Band symmetry, C_1 (1)     point group:

     e(  1 -  1) =    -13.32689  eV     1   --> A              
     e(  2 -  2) =    -12.12887  eV     1   --> A              
     e(  3 -  3) =     -9.20433  eV     1   --> A              
     e(  4 -  4) =     -7.57458  eV     1   --> A              
     e(  5 -  5) =     -5.81793  eV     1   --> A              
     e(  6 -  6) =     -5.16143  eV     1   --> A              
     e(  7 -  7) =     -4.30547  eV     1   --> A              
     e(  8 -  8) =     -4.10965  eV     1   --> A              
     e(  9 -  9) =     -2.21089  eV     1   --> A              
     e( 10 - 10) =     -1.74291  eV     1   --> A              
     e( 11 - 11) =     -1.20832  eV     1   --> A              
     e( 12 - 12) =     -1.09679  eV     1   --> A              

 **************************************************************************

 **************************************************************************

                    xk=(   0.03333,   0.57734,   0.00000  )

     Band symmetry, C_1 (1)     point group:

     e(  1 -  1) =    -13.32555  eV     1   --> A              
     e(  2 -  2) =    -12.13089  eV     1   --> A              
     e(  3 -  3) =     -9.20759  eV     1   --> A              
     e(  4 -  4) =     -7.56598  eV     1   --> A              
     e(  5 -  5) =     -5.82393  eV     1   --> A              
     e(  6 -  6) =     -5.15850  eV     1   --> A              
     e(  7 -  7) =     -4.30466  eV     1   --> A              
     e(  8 -  8) =     -4.11213  eV     1   --> A              
     e(  9 -  9) =     -2.22782  eV     1   --> A              
     e( 10 - 10) =     -1.72401  eV     1   --> A              
     e( 11 - 11) =     -1.20759  eV     1   --> A              
     e( 12 - 12) =     -1.09155  eV     1   --> A              

 **************************************************************************

 **************************************************************************

                    xk=(   0.04444,   0.57734,   0.00000  )

     Band symmetry, C_1 (1)     point group:

     e(  1 -  1) =    -13.32369  eV     1   --> A              
     e(  2 -  2) =    -12.13369  eV     1   --> A              
     e(  3 -  3) =     -9.21206  eV     1   --> A              
     e(  4 -  4) =     -7.55405  eV     1   --> A              
     e(  5 -  5) =     -5.83229  eV     1   --> A              
     e(  6 -  6) =     -5.15437  eV     1   --> A              
     e(  7 -  7) =     -4.30361  eV     1   --> A              
     e(  8 -  8) =     -4.11557  eV     1   --> A              
     e(  9 -  9) =     -2.24944  eV     1   --> A              
     e( 10 - 10) =     -1.69962  eV     1   --> A              
     e( 11 - 11) =     -1.20631  eV     1   --> A              
     e( 12 - 12) =     -1.08448  eV     1   --> A              

 **************************************************************************

 **************************************************************************

                    xk=(   0.05555,   0.57734,   0.00000  )

     Band symmetry, C_1 (1)     point group:

     e(  1 -  1) =    -13.32131  eV     1   --> A              
     e(  2 -  2) =    -12.13727  eV     1   --> A              
     e(  3 -  3) =     -9.21765  eV     1   --> A              
     e(  4 -  4) =     -7.53892  eV     1   --> A              
     e(  5 -  5) =     -5.84297  eV     1   --> A              
     e(  6 -  6) =     -5.14904  eV     1   --> A              
     e(  7 -  7) =     -4.30240  eV     1   --> A              
     e(  8 -  8) =     -4.11992  eV     1   --> A              
     e(  9 -  9) =     -2.27446  eV     1   --> A              
     e( 10 - 10) =     -1.67104  eV     1   --> A              
     e( 11 - 11) =     -1.20428  eV     1   --> A              
     e( 12 - 12) =     -1.07582  eV     1   --> A              

 **************************************************************************

 **************************************************************************

                    xk=(   0.06666,   0.57734,   0.00000  )

     Band symmetry, C_1 (1)     point group:

     e(  1 -  1) =    -13.31842  eV     1   --> A              
     e(  2 -  2) =    -12.14160  eV     1   --> A              
     e(  3 -  3) =     -9.22424  eV     1   --> A              
     e(  4 -  4) =     -7.52071  eV     1   --> A              
     e(  5 -  5) =     -5.85590  eV     1   --> A              
     e(  6 -  6) =     -5.14249  eV     1   --> A              
     e(  7 -  7) =     -4.30114  eV     1   --> A              
     e(  8 -  8) =     -4.12512  eV     1   --> A              
     e(  9 -  9) =     -2.30183  eV     1   --> A              
     e( 10 - 10) =     -1.63933  eV     1   --> A              
     e( 11 - 11) =     -1.20134  eV     1   --> A              
     e( 12 - 12) =     -1.06577  eV     1   --> A              

 **************************************************************************

 **************************************************************************

                    xk=(   0.07777,   0.57734,   0.00000  )

     Band symmetry, C_1 (1)     point group:

     e(  1 -  1) =    -13.31504  eV     1   --> A              
     e(  2 -  2) =    -12.14667  eV     1   --> A              
     e(  3 -  3) =     -9.23171  eV     1   --> A              
     e(  4 -  4) =     -7.49958  eV     1   --> A              
     e(  5 -  5) =     -5.87103  eV     1   --> A              
     e(  6 -  6) =     -5.13470  eV     1   --> A              
     e(  7 -  7) =     -4.29997  eV     1   --> A              
     e(  8 -  8) =     -4.13107  eV     1   --> A              
     e(  9 -  9) =     -2.33071  eV     1   --> A              
     e( 10 - 10) =     -1.60530  eV     1   --> A              
     e( 11 - 11) =     -1.19733  eV     1   --> A              
     e( 12 - 12) =     -1.05451  eV     1   --> A              

 **************************************************************************

 **************************************************************************

                    xk=(   0.08888,   0.57733,   0.00000  )

     Band symmetry, C_1 (1)     point group:

     e(  1 -  1) =    -13.31119  eV     1   --> A              
     e(  2 -  2) =    -12.15243  eV     1   --> A              
     e(  3 -  3) =     -9.23993  eV     1   --> A              
     e(  4 -  4) =     -7.47571  eV     1   --> A              
     e(  5 -  5) =     -5.88827  eV     1   --> A              
     e(  6 -  6) =     -5.12566  eV     1   --> A              
     e(  7 -  7) =     -4.29905  eV     1   --> A              
     e(  8 -  8) =     -4.13769  eV     1   --> A              
     e(  9 -  9) =     -2.36047  eV     1   --> A              
     e( 10 - 10) =     -1.56963  eV     1   --> A              
     e( 11 - 11) =     -1.19210  eV     1   --> A              
     e( 12 - 12) =     -1.04220  eV     1   --> A              

 **************************************************************************

 **************************************************************************

                    xk=(   0.09999,   0.57733,   0.00000  )

     Band symmetry, C_1 (1)     point group:

     e(  1 -  1) =    -13.30687  eV     1   --> A              
     e(  2 -  2) =    -12.15886  eV     1   --> A              
     e(  3 -  3) =     -9.24875  eV     1   --> A              
     e(  4 -  4) =     -7.44927  eV     1   --> A              
     e(  5 -  5) =     -5.90754  eV     1   --> A              
     e(  6 -  6) =     -5.11536  eV     1   --> A              
     e(  7 -  7) =     -4.29856  eV     1   --> A              
     e(  8 -  8) =     -4.14481  eV     1   --> A              
     e(  9 -  9) =     -2.39062  eV     1   --> A              
     e( 10 - 10) =     -1.53279  eV     1   --> A              
     e( 11 - 11) =     -1.18552  eV     1   --> A              
     e( 12 - 12) =     -1.02894  eV     1   --> A              

 **************************************************************************

 **************************************************************************

                    xk=(   0.11110,   0.57733,   0.00000  )

     Band symmetry, C_1 (1)     point group:

     e(  1 -  1) =    -13.30213  eV     1   --> A              
     e(  2 -  2) =    -12.16591  eV     1   --> A              
     e(  3 -  3) =     -9.25803  eV     1   --> A              
     e(  4 -  4) =     -7.42047  eV     1   --> A              
     e(  5 -  5) =     -5.92875  eV     1   --> A              
     e(  6 -  6) =     -5.10380  eV     1   --> A              
     e(  7 -  7) =     -4.29876  eV     1   --> A              
     e(  8 -  8) =     -4.15226  eV     1   --> A              
     e(  9 -  9) =     -2.42081  eV     1   --> A              
     e( 10 - 10) =     -1.49523  eV     1   --> A              
     e( 11 - 11) =     -1.17752  eV     1   --> A              
     e( 12 - 12) =     -1.01490  eV     1   --> A              

 **************************************************************************

 **************************************************************************

                    xk=(   0.12221,   0.57733,   0.00000  )

     Band symmetry, C_1 (1)     point group:

     e(  1 -  1) =    -13.29698  eV     1   --> A              
     e(  2 -  2) =    -12.17355  eV     1   --> A              
     e(  3 -  3) =     -9.26764  eV     1   --> A              
     e(  4 -  4) =     -7.38948  eV     1   --> A              
     e(  5 -  5) =     -5.95180  eV     1   --> A              
     e(  6 -  6) =     -5.09097  eV     1   --> A              
     e(  7 -  7) =     -4.29990  eV     1   --> A              
     e(  8 -  8) =     -4.15981  eV     1   --> A              
     e(  9 -  9) =     -2.45072  eV     1   --> A              
     e( 10 - 10) =     -1.45728  eV     1   --> A              
     e( 11 - 11) =     -1.16797  eV     1   --> A              
     e( 12 - 12) =     -1.00009  eV     1   --> A              

 **************************************************************************

 **************************************************************************

                    xk=(   0.13332,   0.57733,   0.00000  )

     Band symmetry, C_1 (1)     point group:

     e(  1 -  1) =    -13.29146  eV     1   --> A              
     e(  2 -  2) =    -12.18171  eV     1   --> A              
     e(  3 -  3) =     -9.27745  eV     1   --> A              
     e(  4 -  4) =     -7.35652  eV     1   --> A              
     e(  5 -  5) =     -5.97659  eV     1   --> A              
     e(  6 -  6) =     -5.07687  eV     1   --> A              
     e(  7 -  7) =     -4.30230  eV     1   --> A              
     e(  8 -  8) =     -4.16721  eV     1   --> A              
     e(  9 -  9) =     -2.48012  eV     1   --> A              
     e( 10 - 10) =     -1.41934  eV     1   --> A              
     e( 11 - 11) =     -1.15681  eV     1   --> A              
     e( 12 - 12) =     -0.98460  eV     1   --> A              

 **************************************************************************

 **************************************************************************

                    xk=(   0.14443,   0.57733,   0.00000  )

     Band symmetry, C_1 (1)     point group:

     e(  1 -  1) =    -13.28560  eV     1   --> A              
     e(  2 -  2) =    -12.19034  eV     1   --> A              
     e(  3 -  3) =     -9.28731  eV     1   --> A              
     e(  4 -  4) =     -7.32176  eV     1   --> A              
     e(  5 -  5) =     -6.00301  eV     1   --> A              
     e(  6 -  6) =     -5.06153  eV     1   --> A              
     e(  7 -  7) =     -4.30626  eV     1   --> A              
     e(  8 -  8) =     -4.17418  eV     1   --> A              
     e(  9 -  9) =     -2.50883  eV     1   --> A              
     e( 10 - 10) =     -1.38174  eV     1   --> A              
     e( 11 - 11) =     -1.14390  eV     1   --> A              
     e( 12 - 12) =     -0.96844  eV     1   --> A              

 **************************************************************************

 **************************************************************************

                    xk=(   0.15554,   0.57732,   0.00000  )

     Band symmetry, C_1 (1)     point group:

     e(  1 -  1) =    -13.27945  eV     1   --> A              
     e(  2 -  2) =    -12.19938  eV     1   --> A              
     e(  3 -  3) =     -9.29713  eV     1   --> A              
     e(  4 -  4) =     -7.28541  eV     1   --> A              
     e(  5 -  5) =     -6.03097  eV     1   --> A              
     e(  6 -  6) =     -5.04496  eV     1   --> A              
     e(  7 -  7) =     -4.31206  eV     1   --> A              
     e(  8 -  8) =     -4.18047  eV     1   --> A              
     e(  9 -  9) =     -2.53666  eV     1   --> A              
     e( 10 - 10) =     -1.34491  eV     1   --> A              
     e( 11 - 11) =     -1.12909  eV     1   --> A              
     e( 12 - 12) =     -0.95158  eV     1   --> A              

 **************************************************************************

 **************************************************************************

                    xk=(   0.16665,   0.57732,   0.00000  )

     Band symmetry, C_1 (1)     point group:

     e(  1 -  1) =    -13.27304  eV     1   --> A              
     e(  2 -  2) =    -12.20875  eV     1   --> A              
     e(  3 -  3) =     -9.30678  eV     1   --> A              
     e(  4 -  4) =     -7.24763  eV     1   --> A              
     e(  5 -  5) =     -6.06036  eV     1   --> A              
     e(  6 -  6) =     -5.02720  eV     1   --> A              
     e(  7 -  7) =     -4.31990  eV     1   --> A              
     e(  8 -  8) =     -4.18591  eV     1   --> A              
     e(  9 -  9) =     -2.56349  eV     1   --> A              
     e( 10 - 10) =     -1.30930  eV     1   --> A              
     e( 11 - 11) =     -1.11219  eV     1   --> A              
     e( 12 - 12) =     -0.93400  eV     1   --> A              

 **************************************************************************

 **************************************************************************

                    xk=(   0.17776,   0.57732,   0.00000  )

     Band symmetry, C_1 (1)     point group:

     e(  1 -  1) =    -13.26643  eV     1   --> A              
     e(  2 -  2) =    -12.21837  eV     1   --> A              
     e(  3 -  3) =     -9.31616  eV     1   --> A              
     e(  4 -  4) =     -7.20862  eV     1   --> A              
     e(  5 -  5) =     -6.09108  eV     1   --> A              
     e(  6 -  6) =     -5.00827  eV     1   --> A              
     e(  7 -  7) =     -4.32982  eV     1   --> A              
     e(  8 -  8) =     -4.19041  eV     1   --> A              
     e(  9 -  9) =     -2.58916  eV     1   --> A              
     e( 10 - 10) =     -1.27542  eV     1   --> A              
     e( 11 - 11) =     -1.09295  eV     1   --> A              
     e( 12 - 12) =     -0.91559  eV     1   --> A              

 **************************************************************************

 **************************************************************************

                    xk=(   0.18887,   0.57732,   0.00000  )

     Band symmetry, C_1 (1)     point group:

     e(  1 -  1) =    -13.25968  eV     1   --> A              
     e(  2 -  2) =    -12.22817  eV     1   --> A              
     e(  3 -  3) =     -9.32520  eV     1   --> A              
     e(  4 -  4) =     -7.16854  eV     1   --> A              
     e(  5 -  5) =     -6.12303  eV     1   --> A              
     e(  6 -  6) =     -4.98823  eV     1   --> A              
     e(  7 -  7) =     -4.34178  eV     1   --> A              
     e(  8 -  8) =     -4.19403  eV     1   --> A              
     e(  9 -  9) =     -2.61357  eV     1   --> A              
     e( 10 - 10) =     -1.24381  eV     1   --> A              
     e( 11 - 11) =     -1.07121  eV     1   --> A              
     e( 12 - 12) =     -0.89627  eV     1   --> A              

 **************************************************************************

 **************************************************************************

                    xk=(   0.19998,   0.57732,   0.00000  )

     Band symmetry, C_1 (1)     point group:

     e(  1 -  1) =    -13.25286  eV     1   --> A              
     e(  2 -  2) =    -12.23803  eV     1   --> A              
     e(  3 -  3) =     -9.33380  eV     1   --> A              
     e(  4 -  4) =     -7.12755  eV     1   --> A              
     e(  5 -  5) =     -6.15611  eV     1   --> A              
     e(  6 -  6) =     -4.96715  eV     1   --> A              
     e(  7 -  7) =     -4.35561  eV     1   --> A              
     e(  8 -  8) =     -4.19690  eV     1   --> A              
     e(  9 -  9) =     -2.63661  eV     1   --> A              
     e( 10 - 10) =     -1.21490  eV     1   --> A              
     e( 11 - 11) =     -1.04679  eV     1   --> A              
     e( 12 - 12) =     -0.87589  eV     1   --> A              

 **************************************************************************

 **************************************************************************

                    xk=(   0.21109,   0.57731,   0.00000  )

     Band symmetry, C_1 (1)     point group:

     e(  1 -  1) =    -13.24602  eV     1   --> A              
     e(  2 -  2) =    -12.24787  eV     1   --> A              
     e(  3 -  3) =     -9.34191  eV     1   --> A              
     e(  4 -  4) =     -7.08583  eV     1   --> A              
     e(  5 -  5) =     -6.19023  eV     1   --> A              
     e(  6 -  6) =     -4.94511  eV     1   --> A              
     e(  7 -  7) =     -4.37110  eV     1   --> A              
     e(  8 -  8) =     -4.19916  eV     1   --> A              
     e(  9 -  9) =     -2.65820  eV     1   --> A              
     e( 10 - 10) =     -1.18899  eV     1   --> A              
     e( 11 - 11) =     -1.01983  eV     1   --> A              
     e( 12 - 12) =     -0.85430  eV     1   --> A              

 **************************************************************************

 **************************************************************************

                    xk=(   0.22220,   0.57731,   0.00000  )

     Band symmetry, C_1 (1)     point group:

     e(  1 -  1) =    -13.23925  eV     1   --> A              
     e(  2 -  2) =    -12.25756  eV     1   --> A              
     e(  3 -  3) =     -9.34945  eV     1   --> A              
     e(  4 -  4) =     -7.04351  eV     1   --> A              
     e(  5 -  5) =     -6.22531  eV     1   --> A              
     e(  6 -  6) =     -4.92222  eV     1   --> A              
     e(  7 -  7) =     -4.38799  eV     1   --> A              
     e(  8 -  8) =     -4.20101  eV     1   --> A              
     e(  9 -  9) =     -2.67823  eV     1   --> A              
     e( 10 - 10) =     -1.16611  eV     1   --> A              
     e( 11 - 11) =     -0.99069  eV     1   --> A              
     e( 12 - 12) =     -0.83142  eV     1   --> A              

 **************************************************************************

 **************************************************************************

                    xk=(   0.23331,   0.57731,   0.00000  )

     Band symmetry, C_1 (1)     point group:

     e(  1 -  1) =    -13.23264  eV     1   --> A              
     e(  2 -  2) =    -12.26699  eV     1   --> A              
     e(  3 -  3) =     -9.35639  eV     1   --> A              
     e(  4 -  4) =     -7.00076  eV     1   --> A              
     e(  5 -  5) =     -6.26125  eV     1   --> A              
     e(  6 -  6) =     -4.89862  eV     1   --> A              
     e(  7 -  7) =     -4.40604  eV     1   --> A              
     e(  8 -  8) =     -4.20258  eV     1   --> A              
     e(  9 -  9) =     -2.69665  eV     1   --> A              
     e( 10 - 10) =     -1.14610  eV     1   --> A              
     e( 11 - 11) =     -0.95988  eV     1   --> A              
     e( 12 - 12) =     -0.80711  eV     1   --> A              

 **************************************************************************

 **************************************************************************

                    xk=(   0.24442,   0.57731,   0.00000  )

     Band symmetry, C_1 (1)     point group:

     e(  1 -  1) =    -13.22627  eV     1   --> A              
     e(  2 -  2) =    -12.27604  eV     1   --> A              
     e(  3 -  3) =     -9.36267  eV     1   --> A              
     e(  4 -  4) =     -6.95772  eV     1   --> A              
     e(  5 -  5) =     -6.29799  eV     1   --> A              
     e(  6 -  6) =     -4.87448  eV     1   --> A              
     e(  7 -  7) =     -4.42500  eV     1   --> A              
     e(  8 -  8) =     -4.20397  eV     1   --> A              
     e(  9 -  9) =     -2.71337  eV     1   --> A              
     e( 10 - 10) =     -1.12873  eV     1   --> A              
     e( 11 - 11) =     -0.92801  eV     1   --> A              
     e( 12 - 12) =     -0.78140  eV     1   --> A              

 **************************************************************************

 **************************************************************************

                    xk=(   0.25553,   0.57731,   0.00000  )

     Band symmetry, C_1 (1)     point group:

     e(  1 -  1) =    -13.22025  eV     1   --> A              
     e(  2 -  2) =    -12.28456  eV     1   --> A              
     e(  3 -  3) =     -9.36828  eV     1   --> A              
     e(  4 -  4) =     -6.91452  eV     1   --> A              
     e(  5 -  5) =     -6.33543  eV     1   --> A              
     e(  6 -  6) =     -4.85004  eV     1   --> A              
     e(  7 -  7) =     -4.44459  eV     1   --> A              
     e(  8 -  8) =     -4.20527  eV     1   --> A              
     e(  9 -  9) =     -2.72833  eV     1   --> A              
     e( 10 - 10) =     -1.11374  eV     1   --> A              
     e( 11 - 11) =     -0.89562  eV     1   --> A              
     e( 12 - 12) =     -0.75442  eV     1   --> A              

 **************************************************************************

 **************************************************************************

                    xk=(   0.26664,   0.57730,   0.00000  )

     Band symmetry, C_1 (1)     point group:

     e(  1 -  1) =    -13.21468  eV     1   --> A              
     e(  2 -  2) =    -12.29241  eV     1   --> A              
     e(  3 -  3) =     -9.37317  eV     1   --> A              
     e(  4 -  4) =     -6.87130  eV     1   --> A              
     e(  5 -  5) =     -6.37349  eV     1   --> A              
     e(  6 -  6) =     -4.82560  eV     1   --> A              
     e(  7 -  7) =     -4.46449  eV     1   --> A              
     e(  8 -  8) =     -4.20648  eV     1   --> A              
     e(  9 -  9) =     -2.74147  eV     1   --> A              
     e( 10 - 10) =     -1.10093  eV     1   --> A              
     e( 11 - 11) =     -0.86306  eV     1   --> A              
     e( 12 - 12) =     -0.72657  eV     1   --> A              

 **************************************************************************

 **************************************************************************

                    xk=(   0.27775,   0.57730,   0.00000  )

     Band symmetry, C_1 (1)     point group:

     e(  1 -  1) =    -13.20967  eV     1   --> A              
     e(  2 -  2) =    -12.29945  eV     1   --> A              
     e(  3 -  3) =     -9.37733  eV     1   --> A              
     e(  4 -  4) =     -6.82820  eV     1   --> A              
     e(  5 -  5) =     -6.41208  eV     1   --> A              
     e(  6 -  6) =     -4.80160  eV     1   --> A              
     e(  7 -  7) =     -4.48433  eV     1   --> A              
     e(  8 -  8) =     -4.20764  eV     1   --> A              
     e(  9 -  9) =     -2.75273  eV     1   --> A              
     e( 10 - 10) =     -1.09017  eV     1   --> A              
     e( 11 - 11) =     -0.83065  eV     1   --> A              
     e( 12 - 12) =     -0.69871  eV     1   --> A              

 **************************************************************************

 **************************************************************************

                    xk=(   0.28886,   0.57730,   0.00000  )

     Band symmetry, C_1 (1)     point group:

     e(  1 -  1) =    -13.20533  eV     1   --> A              
     e(  2 -  2) =    -12.30552  eV     1   --> A              
     e(  3 -  3) =     -9.38075  eV     1   --> A              
     e(  4 -  4) =     -6.78539  eV     1   --> A              
     e(  5 -  5) =     -6.45110  eV     1   --> A              
     e(  6 -  6) =     -4.77868  eV     1   --> A              
     e(  7 -  7) =     -4.50353  eV     1   --> A              
     e(  8 -  8) =     -4.20871  eV     1   --> A              
     e(  9 -  9) =     -2.76205  eV     1   --> A              
     e( 10 - 10) =     -1.08137  eV     1   --> A              
     e( 11 - 11) =     -0.79848  eV     1   --> A              
     e( 12 - 12) =     -0.67231  eV     1   --> A              

 **************************************************************************

 **************************************************************************

                    xk=(   0.29997,   0.57730,   0.00000  )

     Band symmetry, C_1 (1)     point group:

     e(  1 -  1) =    -13.20178  eV     1   --> A              
     e(  2 -  2) =    -12.31048  eV     1   --> A              
     e(  3 -  3) =     -9.38341  eV     1   --> A              
     e(  4 -  4) =     -6.74311  eV     1   --> A              
     e(  5 -  5) =     -6.49036  eV     1   --> A              
     e(  6 -  6) =     -4.75779  eV     1   --> A              
     e(  7 -  7) =     -4.52124  eV     1   --> A              
     e(  8 -  8) =     -4.20965  eV     1   --> A              
     e(  9 -  9) =     -2.76940  eV     1   --> A              
     e( 10 - 10) =     -1.07448  eV     1   --> A              
     e( 11 - 11) =     -0.76667  eV     1   --> A              
     e( 12 - 12) =     -0.64996  eV     1   --> A              

 **************************************************************************

 **************************************************************************

                    xk=(   0.31108,   0.57730,   0.00000  )

     Band symmetry, C_1 (1)     point group:

     e(  1 -  1) =    -13.19914  eV     1   --> A              
     e(  2 -  2) =    -12.31418  eV     1   --> A              
     e(  3 -  3) =     -9.38533  eV     1   --> A              
     e(  4 -  4) =     -6.70181  eV     1   --> A              
     e(  5 -  5) =     -6.52945  eV     1   --> A              
     e(  6 -  6) =     -4.74041  eV     1   --> A              
     e(  7 -  7) =     -4.53614  eV     1   --> A              
     e(  8 -  8) =     -4.21043  eV     1   --> A              
     e(  9 -  9) =     -2.77472  eV     1   --> A              
     e( 10 - 10) =     -1.06949  eV     1   --> A              
     e( 11 - 11) =     -0.73543  eV     1   --> A              
     e( 12 - 12) =     -0.63605  eV     1   --> A              

 **************************************************************************

 **************************************************************************

                    xk=(   0.32219,   0.57729,   0.00000  )

     Band symmetry, C_1 (1)     point group:

     e(  1 -  1) =    -13.19749  eV     1   --> A              
     e(  2 -  2) =    -12.31648  eV     1   --> A              
     e(  3 -  3) =     -9.38648  eV     1   --> A              
     e(  4 -  4) =     -6.66315  eV     1   --> A              
     e(  5 -  5) =     -6.56675  eV     1   --> A              
     e(  6 -  6) =     -4.72854  eV     1   --> A              
     e(  7 -  7) =     -4.54637  eV     1   --> A              
     e(  8 -  8) =     -4.21093  eV     1   --> A              
     e(  9 -  9) =     -2.77795  eV     1   --> A              
     e( 10 - 10) =     -1.06642  eV     1   --> A              
     e( 11 - 11) =     -0.70572  eV     1   --> A              
     e( 12 - 12) =     -0.63593  eV     1   --> A              

 **************************************************************************

 **************************************************************************

                    xk=(   0.33330,   0.57729,   0.00000  )

     Band symmetry, C_1 (1)     point group:

     e(  1 -  1) =    -13.19694  eV     1   --> A              
     e(  2 -  2) =    -12.31723  eV     1   --> A              
     e(  3 -  3) =     -9.38689  eV     1   --> A              
     e(  4 -  4) =     -6.64029  eV     1   --> A              
     e(  5 -  5) =     -6.58915  eV     1   --> A              
     e(  6 -  6) =     -4.72434  eV     1   --> A              
     e(  7 -  7) =     -4.54998  eV     1   --> A              
     e(  8 -  8) =     -4.21111  eV     1   --> A              
     e(  9 -  9) =     -2.77905  eV     1   --> A              
     e( 10 - 10) =     -1.06537  eV     1   --> A              
     e( 11 - 11) =     -0.68631  eV     1   --> A              
     e( 12 - 12) =     -0.64553  eV     1   --> A              

 **************************************************************************

 **************************************************************************

                    xk=(   0.32219,   0.55805,   0.00000  )

     Band symmetry, C_1 (1)     point group:

     e(  1 -  1) =    -13.19928  eV     1   --> A              
     e(  2 -  2) =    -12.31399  eV     1   --> A              
     e(  3 -  3) =     -9.38528  eV     1   --> A              
     e(  4 -  4) =     -6.70099  eV     1   --> A              
     e(  5 -  5) =     -6.53037  eV     1   --> A              
     e(  6 -  6) =     -4.74007  eV     1   --> A              
     e(  7 -  7) =     -4.53703  eV     1   --> A              
     e(  8 -  8) =     -4.21032  eV     1   --> A              
     e(  9 -  9) =     -2.77455  eV     1   --> A              
     e( 10 - 10) =     -1.07023  eV     1   --> A              
     e( 11 - 11) =     -0.76091  eV     1   --> A              
     e( 12 - 12) =     -0.59667  eV     1   --> A              

 **************************************************************************

 **************************************************************************

                    xk=(   0.31108,   0.53881,   0.00000  )

     Band symmetry, C_1 (1)     point group:

     e(  1 -  1) =    -13.20680  eV     1   --> A              
     e(  2 -  2) =    -12.30338  eV     1   --> A              
     e(  3 -  3) =     -9.38083  eV     1   --> A              
     e(  4 -  4) =     -6.78343  eV     1   --> A              
     e(  5 -  5) =     -6.45386  eV     1   --> A              
     e(  6 -  6) =     -4.77774  eV     1   --> A              
     e(  7 -  7) =     -4.50872  eV     1   --> A              
     e(  8 -  8) =     -4.20759  eV     1   --> A              
     e(  9 -  9) =     -2.76094  eV     1   --> A              
     e( 10 - 10) =     -1.08821  eV     1   --> A              
     e( 11 - 11) =     -0.86650  eV     1   --> A              
     e( 12 - 12) =     -0.53407  eV     1   --> A              

 **************************************************************************

 **************************************************************************

                    xk=(   0.29997,   0.51956,   0.00000  )

     Band symmetry, C_1 (1)     point group:

     e(  1 -  1) =    -13.21962  eV     1   --> A              
     e(  2 -  2) =    -12.28502  eV     1   --> A              
     e(  3 -  3) =     -9.37368  eV     1   --> A              
     e(  4 -  4) =     -6.86800  eV     1   --> A              
     e(  5 -  5) =     -6.37953  eV     1   --> A              
     e(  6 -  6) =     -4.82494  eV     1   --> A              
     e(  7 -  7) =     -4.47867  eV     1   --> A              
     e(  8 -  8) =     -4.20330  eV     1   --> A              
     e(  9 -  9) =     -2.73792  eV     1   --> A              
     e( 10 - 10) =     -1.12975  eV     1   --> A              
     e( 11 - 11) =     -0.95499  eV     1   --> A              
     e( 12 - 12) =     -0.47140  eV     1   --> A              

 **************************************************************************

 **************************************************************************

                    xk=(   0.28886,   0.50032,   0.00000  )

     Band symmetry, C_1 (1)     point group:

     e(  1 -  1) =    -13.23753  eV     1   --> A              
     e(  2 -  2) =    -12.25887  eV     1   --> A              
     e(  3 -  3) =     -9.36402  eV     1   --> A              
     e(  4 -  4) =     -6.95354  eV     1   --> A              
     e(  5 -  5) =     -6.30871  eV     1   --> A              
     e(  6 -  6) =     -4.87612  eV     1   --> A              
     e(  7 -  7) =     -4.45259  eV     1   --> A              
     e(  8 -  8) =     -4.19883  eV     1   --> A              
     e(  9 -  9) =     -2.70541  eV     1   --> A              
     e( 10 - 10) =     -1.20111  eV     1   --> A              
     e( 11 - 11) =     -1.00905  eV     1   --> A              
     e( 12 - 12) =     -0.41030  eV     1   --> A              

 **************************************************************************

 **************************************************************************

                    xk=(   0.27775,   0.48108,   0.00000  )

     Band symmetry, C_1 (1)     point group:

     e(  1 -  1) =    -13.26005  eV     1   --> A              
     e(  2 -  2) =    -12.22521  eV     1   --> A              
     e(  3 -  3) =     -9.35205  eV     1   --> A              
     e(  4 -  4) =     -7.03976  eV     1   --> A              
     e(  5 -  5) =     -6.24191  eV     1   --> A              
     e(  6 -  6) =     -4.92897  eV     1   --> A              
     e(  7 -  7) =     -4.43190  eV     1   --> A              
     e(  8 -  8) =     -4.19662  eV     1   --> A              
     e(  9 -  9) =     -2.66384  eV     1   --> A              
     e( 10 - 10) =     -1.28435  eV     1   --> A              
     e( 11 - 11) =     -1.04075  eV     1   --> A              
     e( 12 - 12) =     -0.35232  eV     1   --> A              

 **************************************************************************

 **************************************************************************

                    xk=(   0.26664,   0.46183,   0.00000  )

     Band symmetry, C_1 (1)     point group:

     e(  1 -  1) =    -13.28650  eV     1   --> A              
     e(  2 -  2) =    -12.18449  eV     1   --> A              
     e(  3 -  3) =     -9.33799  eV     1   --> A              
     e(  4 -  4) =     -7.12649  eV     1   --> A              
     e(  5 -  5) =     -6.17945  eV     1   --> A              
     e(  6 -  6) =     -4.98233  eV     1   --> A              
     e(  7 -  7) =     -4.41634  eV     1   --> A              
     e(  8 -  8) =     -4.19918  eV     1   --> A              
     e(  9 -  9) =     -2.61438  eV     1   --> A              
     e( 10 - 10) =     -1.36122  eV     1   --> A              
     e( 11 - 11) =     -1.06395  eV     1   --> A              
     e( 12 - 12) =     -0.29922  eV     1   --> A              

 **************************************************************************

 **************************************************************************

                    xk=(   0.25553,   0.44259,   0.00000  )

     Band symmetry, C_1 (1)     point group:

     e(  1 -  1) =    -13.31614  eV     1   --> A              
     e(  2 -  2) =    -12.13730  eV     1   --> A              
     e(  3 -  3) =     -9.32206  eV     1   --> A              
     e(  4 -  4) =     -7.21366  eV     1   --> A              
     e(  5 -  5) =     -6.12155  eV     1   --> A              
     e(  6 -  6) =     -5.03546  eV     1   --> A              
     e(  7 -  7) =     -4.40588  eV     1   --> A              
     e(  8 -  8) =     -4.20765  eV     1   --> A              
     e(  9 -  9) =     -2.55918  eV     1   --> A              
     e( 10 - 10) =     -1.42348  eV     1   --> A              
     e( 11 - 11) =     -1.08299  eV     1   --> A              
     e( 12 - 12) =     -0.25311  eV     1   --> A              

 **************************************************************************

 **************************************************************************

                    xk=(   0.24442,   0.42335,   0.00000  )

     Band symmetry, C_1 (1)     point group:

     e(  1 -  1) =    -13.34822  eV     1   --> A              
     e(  2 -  2) =    -12.08423  eV     1   --> A              
     e(  3 -  3) =     -9.30452  eV     1   --> A              
     e(  4 -  4) =     -7.30119  eV     1   --> A              
     e(  5 -  5) =     -6.06837  eV     1   --> A              
     e(  6 -  6) =     -5.08785  eV     1   --> A              
     e(  7 -  7) =     -4.40240  eV     1   --> A              
     e(  8 -  8) =     -4.22016  eV     1   --> A              
     e(  9 -  9) =     -2.50135  eV     1   --> A              
     e( 10 - 10) =     -1.46797  eV     1   --> A              
     e( 11 - 11) =     -1.09759  eV     1   --> A              
     e( 12 - 12) =     -0.21609  eV     1   --> A              

 **************************************************************************

 **************************************************************************

                    xk=(   0.23331,   0.40410,   0.00000  )

     Band symmetry, C_1 (1)     point group:

     e(  1 -  1) =    -13.38203  eV     1   --> A              
     e(  2 -  2) =    -12.02589  eV     1   --> A              
     e(  3 -  3) =     -9.28559  eV     1   --> A              
     e(  4 -  4) =     -7.38909  eV     1   --> A              
     e(  5 -  5) =     -6.01998  eV     1   --> A              
     e(  6 -  6) =     -5.13908  eV     1   --> A              
     e(  7 -  7) =     -4.41118  eV     1   --> A              
     e(  8 -  8) =     -4.23059  eV     1   --> A              
     e(  9 -  9) =     -2.44460  eV     1   --> A              
     e( 10 - 10) =     -1.49477  eV     1   --> A              
     e( 11 - 11) =     -1.10501  eV     1   --> A              
     e( 12 - 12) =     -0.19012  eV     1   --> A              

 **************************************************************************

 **************************************************************************

                    xk=(   0.22220,   0.38486,   0.00000  )

     Band symmetry, C_1 (1)     point group:

     e(  1 -  1) =    -13.41695  eV     1   --> A              
     e(  2 -  2) =    -11.96281  eV     1   --> A              
     e(  3 -  3) =     -9.26554  eV     1   --> A              
     e(  4 -  4) =     -7.47735  eV     1   --> A              
     e(  5 -  5) =     -5.97642  eV     1   --> A              
     e(  6 -  6) =     -5.18879  eV     1   --> A              
     e(  7 -  7) =     -4.43857  eV     1   --> A              
     e(  8 -  8) =     -4.23093  eV     1   --> A              
     e(  9 -  9) =     -2.39242  eV     1   --> A              
     e( 10 - 10) =     -1.50744  eV     1   --> A              
     e( 11 - 11) =     -1.10044  eV     1   --> A              
     e( 12 - 12) =     -0.17618  eV     1   --> A              

 **************************************************************************

 **************************************************************************

                    xk=(   0.21109,   0.36562,   0.00000  )

     Band symmetry, C_1 (1)     point group:

     e(  1 -  1) =    -13.45241  eV     1   --> A              
     e(  2 -  2) =    -11.89551  eV     1   --> A              
     e(  3 -  3) =     -9.24460  eV     1   --> A              
     e(  4 -  4) =     -7.56596  eV     1   --> A              
     e(  5 -  5) =     -5.93763  eV     1   --> A              
     e(  6 -  6) =     -5.23665  eV     1   --> A              
     e(  7 -  7) =     -4.48552  eV     1   --> A              
     e(  8 -  8) =     -4.21817  eV     1   --> A              
     e(  9 -  9) =     -2.34710  eV     1   --> A              
     e( 10 - 10) =     -1.51308  eV     1   --> A              
     e( 11 - 11) =     -1.07779  eV     1   --> A              
     e( 12 - 12) =     -0.17364  eV     1   --> A              

 **************************************************************************

 **************************************************************************

                    xk=(   0.19998,   0.34638,   0.00000  )

     Band symmetry, C_1 (1)     point group:

     e(  1 -  1) =    -13.48795  eV     1   --> A              
     e(  2 -  2) =    -11.82444  eV     1   --> A              
     e(  3 -  3) =     -9.22303  eV     1   --> A              
     e(  4 -  4) =     -7.65494  eV     1   --> A              
     e(  5 -  5) =     -5.90357  eV     1   --> A              
     e(  6 -  6) =     -5.28232  eV     1   --> A              
     e(  7 -  7) =     -4.54758  eV     1   --> A              
     e(  8 -  8) =     -4.19451  eV     1   --> A              
     e(  9 -  9) =     -2.30923  eV     1   --> A              
     e( 10 - 10) =     -1.52005  eV     1   --> A              
     e( 11 - 11) =     -1.03308  eV     1   --> A              
     e( 12 - 12) =     -0.17971  eV     1   --> A              

 **************************************************************************

 **************************************************************************

                    xk=(   0.18887,   0.32713,   0.00000  )

     Band symmetry, C_1 (1)     point group:

     e(  1 -  1) =    -13.52313  eV     1   --> A              
     e(  2 -  2) =    -11.75005  eV     1   --> A              
     e(  3 -  3) =     -9.20107  eV     1   --> A              
     e(  4 -  4) =     -7.74430  eV     1   --> A              
     e(  5 -  5) =     -5.87412  eV     1   --> A              
     e(  6 -  6) =     -5.32545  eV     1   --> A              
     e(  7 -  7) =     -4.61981  eV     1   --> A              
     e(  8 -  8) =     -4.16272  eV     1   --> A              
     e(  9 -  9) =     -2.27791  eV     1   --> A              
     e( 10 - 10) =     -1.53376  eV     1   --> A              
     e( 11 - 11) =     -0.96837  eV     1   --> A              
     e( 12 - 12) =     -0.18855  eV     1   --> A              

 **************************************************************************

 **************************************************************************

                    xk=(   0.17776,   0.30789,   0.00000  )

     Band symmetry, C_1 (1)     point group:

     e(  1 -  1) =    -13.55763  eV     1   --> A              
     e(  2 -  2) =    -11.67274  eV     1   --> A              
     e(  3 -  3) =     -9.17895  eV     1   --> A              
     e(  4 -  4) =     -7.83401  eV     1   --> A              
     e(  5 -  5) =     -5.84921  eV     1   --> A              
     e(  6 -  6) =     -5.36569  eV     1   --> A              
     e(  7 -  7) =     -4.69836  eV     1   --> A              
     e(  8 -  8) =     -4.12463  eV     1   --> A              
     e(  9 -  9) =     -2.25163  eV     1   --> A              
     e( 10 - 10) =     -1.55548  eV     1   --> A              
     e( 11 - 11) =     -0.89406  eV     1   --> A              
     e( 12 - 12) =     -0.19037  eV     1   --> A              

 **************************************************************************

 **************************************************************************

                    xk=(   0.16665,   0.28865,   0.00000  )

     Band symmetry, C_1 (1)     point group:

     e(  1 -  1) =    -13.59112  eV     1   --> A              
     e(  2 -  2) =    -11.59293  eV     1   --> A              
     e(  3 -  3) =     -9.15692  eV     1   --> A              
     e(  4 -  4) =     -7.92404  eV     1   --> A              
     e(  5 -  5) =     -5.82878  eV     1   --> A              
     e(  6 -  6) =     -5.40261  eV     1   --> A              
     e(  7 -  7) =     -4.78034  eV     1   --> A              
     e(  8 -  8) =     -4.08144  eV     1   --> A              
     e(  9 -  9) =     -2.22891  eV     1   --> A              
     e( 10 - 10) =     -1.58398  eV     1   --> A              
     e( 11 - 11) =     -0.82726  eV     1   --> A              
     e( 12 - 12) =     -0.17060  eV     1   --> A              

 **************************************************************************

 **************************************************************************

                    xk=(   0.15554,   0.26940,   0.00000  )

     Band symmetry, C_1 (1)     point group:

     e(  1 -  1) =    -13.62336  eV     1   --> A              
     e(  2 -  2) =    -11.51105  eV     1   --> A              
     e(  3 -  3) =     -9.13519  eV     1   --> A              
     e(  4 -  4) =     -8.01430  eV     1   --> A              
     e(  5 -  5) =     -5.81284  eV     1   --> A              
     e(  6 -  6) =     -5.43575  eV     1   --> A              
     e(  7 -  7) =     -4.86347  eV     1   --> A              
     e(  8 -  8) =     -4.03410  eV     1   --> A              
     e(  9 -  9) =     -2.20862  eV     1   --> A              
     e( 10 - 10) =     -1.61757  eV     1   --> A              
     e( 11 - 11) =     -0.78627  eV     1   --> A              
     e( 12 - 12) =     -0.11380  eV     1   --> A              

 **************************************************************************

 **************************************************************************

                    xk=(   0.14443,   0.25016,   0.00000  )

     Band symmetry, C_1 (1)     point group:

     e(  1 -  1) =    -13.65412  eV     1   --> A              
     e(  2 -  2) =    -11.42753  eV     1   --> A              
     e(  3 -  3) =     -9.11398  eV     1   --> A              
     e(  4 -  4) =     -8.10463  eV     1   --> A              
     e(  5 -  5) =     -5.80145  eV     1   --> A              
     e(  6 -  6) =     -5.46459  eV     1   --> A              
     e(  7 -  7) =     -4.94587  eV     1   --> A              
     e(  8 -  8) =     -3.98340  eV     1   --> A              
     e(  9 -  9) =     -2.19000  eV     1   --> A              
     e( 10 - 10) =     -1.65476  eV     1   --> A              
     e( 11 - 11) =     -0.77888  eV     1   --> A              
     e( 12 - 12) =     -0.01437  eV     1   --> A              

 **************************************************************************

 **************************************************************************

                    xk=(   0.13332,   0.23092,   0.00000  )

     Band symmetry, C_1 (1)     point group:

     e(  1 -  1) =    -13.68321  eV     1   --> A              
     e(  2 -  2) =    -11.34288  eV     1   --> A              
     e(  3 -  3) =     -9.09350  eV     1   --> A              
     e(  4 -  4) =     -8.19483  eV     1   --> A              
     e(  5 -  5) =     -5.79473  eV     1   --> A              
     e(  6 -  6) =     -5.48867  eV     1   --> A              
     e(  7 -  7) =     -5.02600  eV     1   --> A              
     e(  8 -  8) =     -3.93017  eV     1   --> A              
     e(  9 -  9) =     -2.17268  eV     1   --> A              
     e( 10 - 10) =     -1.69442  eV     1   --> A              
     e( 11 - 11) =     -0.79897  eV     1   --> A              
     e( 12 - 12) =      0.11941  eV     1   --> A              

 **************************************************************************

 **************************************************************************

                    xk=(   0.12221,   0.21167,   0.00000  )

     Band symmetry, C_1 (1)     point group:

     e(  1 -  1) =    -13.71047  eV     1   --> A              
     e(  2 -  2) =    -11.25764  eV     1   --> A              
     e(  3 -  3) =     -9.07394  eV     1   --> A              
     e(  4 -  4) =     -8.28458  eV     1   --> A              
     e(  5 -  5) =     -5.79265  eV     1   --> A              
     e(  6 -  6) =     -5.50765  eV     1   --> A              
     e(  7 -  7) =     -5.10261  eV     1   --> A              
     e(  8 -  8) =     -3.87522  eV     1   --> A              
     e(  9 -  9) =     -2.15646  eV     1   --> A              
     e( 10 - 10) =     -1.73568  eV     1   --> A              
     e( 11 - 11) =     -0.83588  eV     1   --> A              
     e( 12 - 12) =      0.27477  eV     1   --> A              

 **************************************************************************

 **************************************************************************

                    xk=(   0.11110,   0.19243,   0.00000  )

     Band symmetry, C_1 (1)     point group:

     e(  1 -  1) =    -13.73576  eV     1   --> A              
     e(  2 -  2) =    -11.17247  eV     1   --> A              
     e(  3 -  3) =     -9.05547  eV     1   --> A              
     e(  4 -  4) =     -8.37342  eV     1   --> A              
     e(  5 -  5) =     -5.79497  eV     1   --> A              
     e(  6 -  6) =     -5.52152  eV     1   --> A              
     e(  7 -  7) =     -5.17466  eV     1   --> A              
     e(  8 -  8) =     -3.81943  eV     1   --> A              
     e(  9 -  9) =     -2.14131  eV     1   --> A              
     e( 10 - 10) =     -1.77778  eV     1   --> A              
     e( 11 - 11) =     -0.88129  eV     1   --> A              
     e( 12 - 12) =      0.44034  eV     1   --> A              

 **************************************************************************

 **************************************************************************

                    xk=(   0.09999,   0.17319,   0.00000  )

     Band symmetry, C_1 (1)     point group:

     e(  1 -  1) =    -13.75896  eV     1   --> A              
     e(  2 -  2) =    -11.08813  eV     1   --> A              
     e(  3 -  3) =     -9.03826  eV     1   --> A              
     e(  4 -  4) =     -8.46077  eV     1   --> A              
     e(  5 -  5) =     -5.80105  eV     1   --> A              
     e(  6 -  6) =     -5.53069  eV     1   --> A              
     e(  7 -  7) =     -5.24131  eV     1   --> A              
     e(  8 -  8) =     -3.76368  eV     1   --> A              
     e(  9 -  9) =     -2.12727  eV     1   --> A              
     e( 10 - 10) =     -1.82004  eV     1   --> A              
     e( 11 - 11) =     -0.92991  eV     1   --> A              
     e( 12 - 12) =      0.60568  eV     1   --> A              

 **************************************************************************

 **************************************************************************

                    xk=(   0.08888,   0.15394,   0.00000  )

     Band symmetry, C_1 (1)     point group:

     e(  1 -  1) =    -13.77996  eV     1   --> A              
     e(  2 -  2) =    -11.00555  eV     1   --> A              
     e(  3 -  3) =     -9.02247  eV     1   --> A              
     e(  4 -  4) =     -8.54583  eV     1   --> A              
     e(  5 -  5) =     -5.80997  eV     1   --> A              
     e(  6 -  6) =     -5.53591  eV     1   --> A              
     e(  7 -  7) =     -5.30191  eV     1   --> A              
     e(  8 -  8) =     -3.70898  eV     1   --> A              
     e(  9 -  9) =     -2.11442  eV     1   --> A              
     e( 10 - 10) =     -1.86176  eV     1   --> A              
     e( 11 - 11) =     -0.97832  eV     1   --> A              
     e( 12 - 12) =      0.75793  eV     1   --> A              

 **************************************************************************

 **************************************************************************

                    xk=(   0.07777,   0.13470,   0.00000  )

     Band symmetry, C_1 (1)     point group:

     e(  1 -  1) =    -13.79868  eV     1   --> A              
     e(  2 -  2) =    -10.92584  eV     1   --> A              
     e(  3 -  3) =     -9.00822  eV     1   --> A              
     e(  4 -  4) =     -8.62759  eV     1   --> A              
     e(  5 -  5) =     -5.82063  eV     1   --> A              
     e(  6 -  6) =     -5.53812  eV     1   --> A              
     e(  7 -  7) =     -5.35594  eV     1   --> A              
     e(  8 -  8) =     -3.65636  eV     1   --> A              
     e(  9 -  9) =     -2.10285  eV     1   --> A              
     e( 10 - 10) =     -1.90215  eV     1   --> A              
     e( 11 - 11) =     -1.02427  eV     1   --> A              
     e( 12 - 12) =      0.87534  eV     1   --> A              

 **************************************************************************

 **************************************************************************

                    xk=(   0.06666,   0.11546,   0.00000  )

     Band symmetry, C_1 (1)     point group:

     e(  1 -  1) =    -13.81505  eV     1   --> A              
     e(  2 -  2) =    -10.85038  eV     1   --> A              
     e(  3 -  3) =     -8.99564  eV     1   --> A              
     e(  4 -  4) =     -8.70474  eV     1   --> A              
     e(  5 -  5) =     -5.83198  eV     1   --> A              
     e(  6 -  6) =     -5.53828  eV     1   --> A              
     e(  7 -  7) =     -5.40306  eV     1   --> A              
     e(  8 -  8) =     -3.60697  eV     1   --> A              
     e(  9 -  9) =     -2.09264  eV     1   --> A              
     e( 10 - 10) =     -1.94037  eV     1   --> A              
     e( 11 - 11) =     -1.06626  eV     1   --> A              
     e( 12 - 12) =      0.93204  eV     1   --> A              

 **************************************************************************

 **************************************************************************

                    xk=(   0.05555,   0.09622,   0.00000  )

     Band symmetry, C_1 (1)     point group:

     e(  1 -  1) =    -13.82900  eV     1   --> A              
     e(  2 -  2) =    -10.78084  eV     1   --> A              
     e(  3 -  3) =     -8.98482  eV     1   --> A              
     e(  4 -  4) =     -8.77568  eV     1   --> A              
     e(  5 -  5) =     -5.84309  eV     1   --> A              
     e(  6 -  6) =     -5.53720  eV     1   --> A              
     e(  7 -  7) =     -5.44303  eV     1   --> A              
     e(  8 -  8) =     -3.56203  eV     1   --> A              
     e(  9 -  9) =     -2.08388  eV     1   --> A              
     e( 10 - 10) =     -1.97541  eV     1   --> A              
     e( 11 - 11) =     -1.10320  eV     1   --> A              
     e( 12 - 12) =      0.93883  eV     1   --> A              

 **************************************************************************

 **************************************************************************

                    xk=(   0.04444,   0.07697,   0.00000  )

     Band symmetry, C_1 (1)     point group:

     e(  1 -  1) =    -13.84047  eV     1   --> A              
     e(  2 -  2) =    -10.71917  eV     1   --> A              
     e(  3 -  3) =     -8.97585  eV     1   --> A              
     e(  4 -  4) =     -8.83846  eV     1   --> A              
     e(  5 -  5) =     -5.85319  eV     1   --> A              
     e(  6 -  6) =     -5.53551  eV     1   --> A              
     e(  7 -  7) =     -5.47571  eV     1   --> A              
     e(  8 -  8) =     -3.52278  eV     1   --> A              
     e(  9 -  9) =     -2.07662  eV     1   --> A              
     e( 10 - 10) =     -2.00624  eV     1   --> A              
     e( 11 - 11) =     -1.13430  eV     1   --> A              
     e( 12 - 12) =      0.92682  eV     1   --> A              

 **************************************************************************

 **************************************************************************

                    xk=(   0.03333,   0.05773,   0.00000  )

     Band symmetry, C_1 (1)     point group:

     e(  1 -  1) =    -13.84944  eV     1   --> A              
     e(  2 -  2) =    -10.66762  eV     1   --> A              
     e(  3 -  3) =     -8.96881  eV     1   --> A              
     e(  4 -  4) =     -8.89088  eV     1   --> A              
     e(  5 -  5) =     -5.86168  eV     1   --> A              
     e(  6 -  6) =     -5.53373  eV     1   --> A              
     e(  7 -  7) =     -5.50109  eV     1   --> A              
     e(  8 -  8) =     -3.49052  eV     1   --> A              
     e(  9 -  9) =     -2.07093  eV     1   --> A              
     e( 10 - 10) =     -2.03175  eV     1   --> A              
     e( 11 - 11) =     -1.15900  eV     1   --> A              
     e( 12 - 12) =      0.91138  eV     1   --> A              

 **************************************************************************

 **************************************************************************

                    xk=(   0.02222,   0.03849,   0.00000  )

     Band symmetry, C_1 (1)     point group:

     e(  1 -  1) =    -13.85587  eV     1   --> A              
     e(  2 -  2) =    -10.62852  eV     1   --> A              
     e(  3 -  3) =     -8.96375  eV     1   --> A              
     e(  4 -  4) =     -8.93060  eV     1   --> A              
     e(  5 -  5) =     -5.86808  eV     1   --> A              
     e(  6 -  6) =     -5.53222  eV     1   --> A              
     e(  7 -  7) =     -5.51916  eV     1   --> A              
     e(  8 -  8) =     -3.46646  eV     1   --> A              
     e(  9 -  9) =     -2.06685  eV     1   --> A              
     e( 10 - 10) =     -2.05092  eV     1   --> A              
     e( 11 - 11) =     -1.17693  eV     1   --> A              
     e( 12 - 12) =      0.89817  eV     1   --> A              

 **************************************************************************

 **************************************************************************

                    xk=(   0.01111,   0.01924,   0.00000  )

     Band symmetry, C_1 (1)     point group:

     e(  1 -  1) =    -13.85973  eV     1   --> A              
     e(  2 -  2) =    -10.60402  eV     1   --> A              
     e(  3 -  3) =     -8.96070  eV     1   --> A              
     e(  4 -  4) =     -8.95546  eV     1   --> A              
     e(  5 -  5) =     -5.87206  eV     1   --> A              
     e(  6 -  6) =     -5.53122  eV     1   --> A              
     e(  7 -  7) =     -5.52998  eV     1   --> A              
     e(  8 -  8) =     -3.45157  eV     1   --> A              
     e(  9 -  9) =     -2.06439  eV     1   --> A              
     e( 10 - 10) =     -2.06282  eV     1   --> A              
     e( 11 - 11) =     -1.18778  eV     1   --> A              
     e( 12 - 12) =      0.88957  eV     1   --> A              

 **************************************************************************

 **************************************************************************

                    xk=(   0.00000,   0.00000,   0.00000  )

     point group C_s (m)    
     there are  2 classes
     the character table:

       E     s    
A'     1.00  1.00
A''    1.00 -1.00

     the symmetry operations in each class and the name of the first element:

     E        1
                                                                 
     s        2
                                                                 

     Band symmetry, C_s (m)     point group:

     e(  1 -  1) =    -13.86102  eV     1   --> A'             
     e(  2 -  2) =    -10.59566  eV     1   --> A'             
     e(  3 -  3) =     -8.96396  eV     1   --> A''            
     e(  4 -  4) =     -8.95967  eV     1   --> A'             
     e(  5 -  5) =     -5.87341  eV     1   --> A'             
     e(  6 -  6) =     -5.53359  eV     1   --> A'             
     e(  7 -  7) =     -5.53087  eV     1   --> A''            
     e(  8 -  8) =     -3.44653  eV     1   --> A'             
     e(  9 -  9) =     -2.06686  eV     1   --> A''            
     e( 10 - 10) =     -2.06356  eV     1   --> A'             
     e( 11 - 11) =     -1.19143  eV     1   --> A'             
     e( 12 - 12) =      0.88661  eV     1   --> A'             

 **************************************************************************

     BANDS        :     35.15s CPU     34.28s WALL


   This run was terminated on:  20:42: 5   8Jan2025            

=------------------------------------------------------------------------------=
   JOB DONE.
=------------------------------------------------------------------------------=
