
     Program PWSCF v.6.4.1 starts on  8Jan2025 at 20:30: 3 

     This program is part of the open-source Quantum ESPRESSO suite
     for quantum simulation of materials; please cite
         "P. Giannozzi et al., J. Phys.:Condens. Matter 21 395502 (2009);
         "P. Giannozzi et al., J. Phys.:Condens. Matter 29 465901 (2017);
          URL http://www.quantum-espresso.org", 
     in publications or presentations arising from this work. More details at
     http://www.quantum-espresso.org/quote

     Parallel version (MPI), running on     1 processors

     MPI processes distributed on     1 nodes
     Waiting for input...
     Reading input from standard input

     Current dimensions of program PWSCF are:
     Max number of different atomic species (ntypx) = 10
     Max number of k-points (npk) =  40000
     Max angular momentum in pseudopotentials (lmaxx) =  3

     Atomic positions and unit cell read from directory:
     ./out/aiida.save/


     Subspace diagonalization in iterative solution of the eigenvalue problem:
     a serial algorithm will be used

     Message from routine setup:
     DEPRECATED: symmetry with ibrav=0, use correct ibrav instead

     G-vector sticks info
     --------------------
     sticks:   dense  smooth     PW     G-vecs:    dense   smooth      PW
     Sum        2107    1057    301               262273    92687   14063



     bravais-lattice index     =            0
     lattice parameter (alat)  =      11.2987  a.u.
     unit-cell volume          =    4178.4920 (a.u.)^3
     number of atoms/cell      =            4
     number of atomic types    =            1
     number of electrons       =        16.00
     number of Kohn-Sham states=           12
     kinetic-energy cutoff     =      30.0000  Ry
     charge density cutoff     =     240.0000  Ry
     Exchange-correlation      = PBE ( 1  4  3  4 0 0)

     celldm(1)=  11.298741  celldm(2)=   0.000000  celldm(3)=   0.000000
     celldm(4)=   0.000000  celldm(5)=   0.000000  celldm(6)=   0.000000

     crystal axes: (cart. coord. in units of alat)
               a(1) = (   1.000000   0.000000   0.000000 )  
               a(2) = (  -0.500000   0.866025   0.000000 )  
               a(3) = (   0.000000   0.000000   3.345021 )  

     reciprocal axes: (cart. coord. in units 2 pi/alat)
               b(1) = (  1.000000  0.577350 -0.000000 )  
               b(2) = (  0.000000  1.154701  0.000000 )  
               b(3) = (  0.000000 -0.000000  0.298952 )  


     PseudoPot. # 1 for Si read from file:
     ../../pseudo/Si.pbe.upf
     MD5 check sum: 3f156eda2279325da2083dedf8f436a5
     Pseudo is Norm-conserving + core correction, Zval =  4.0
     Generated using ONCVPSP code by D. R. Hamann
     Using radial grid of 1510 points,  6 beta functions with: 
                l(1) =   0
                l(2) =   0
                l(3) =   1
                l(4) =   1
                l(5) =   2
                l(6) =   2

     atomic species   valence    mass     pseudopotential
        Si             4.00    28.08550     Si( 1.00)

      2 Sym. Ops. (no inversion) found


                                    s                        frac. trans.

      isym =  1     identity                                     

 cryst.   s( 1) = (     1          0          0      )
                  (     0          1          0      )
                  (     0          0          1      )

 cart.    s( 1) = (  1.0000000  0.0000000  0.0000000 )
                  (  0.0000000  1.0000000  0.0000000 )
                  (  0.0000000  0.0000000  1.0000000 )


      isym =  2     inv. 180 deg rotation - cryst. axis [1,1,0]  

 cryst.   s( 2) = (     0         -1          0      )
                  (    -1          0          0      )
                  (     0          0          1      )

 cart.    s( 2) = (  0.5000000 -0.8660254  0.0000000 )
                  ( -0.8660254 -0.5000000  0.0000000 )
                  (  0.0000000  0.0000000  1.0000000 )


   Cartesian axes

     site n.     atom                  positions (alat units)
         1           Si  tau(   1) = (   0.2500000   0.4330127   1.6725104  )
         2           Si  tau(   2) = (   0.4420000   0.1004589   1.6725104  )
         3           Si  tau(   3) = (   0.6340000   0.4330127   1.6725104  )
         4           Si  tau(   4) = (  -0.0582500   0.6109809   1.8464515  )

   Crystallographic axes

     site n.     atom                  positions (cryst. coord.)
         1           Si  tau(   1) = (  0.5000000  0.5000000  0.5000000  )
         2           Si  tau(   2) = (  0.5000000  0.1160000  0.5000000  )
         3           Si  tau(   3) = (  0.8840000  0.5000000  0.5000000  )
         4           Si  tau(   4) = (  0.2945000  0.7055000  0.5520000  )

     number of k points=    36  Marzari-Vanderbilt smearing, width (Ry)=  0.0147
                       cart. coord. in units 2pi/alat
        k(    1) = (   0.0000000   0.0000000   0.0000000), wk =   0.0165289
        k(    2) = (   0.0000000   0.1049728   0.0000000), wk =   0.0661157
        k(    3) = (   0.0000000   0.2099456   0.0000000), wk =   0.0661157
        k(    4) = (   0.0000000   0.3149183   0.0000000), wk =   0.0661157
        k(    5) = (   0.0000000   0.4198911   0.0000000), wk =   0.0661157
        k(    6) = (   0.0000000   0.5248639   0.0000000), wk =   0.0661157
        k(    7) = (   0.0909091   0.1574592   0.0000000), wk =   0.0330579
        k(    8) = (   0.0909091   0.2624319   0.0000000), wk =   0.0661157
        k(    9) = (   0.0909091   0.3674047   0.0000000), wk =   0.0661157
        k(   10) = (   0.0909091   0.4723775   0.0000000), wk =   0.0661157
        k(   11) = (   0.0909091   0.5773503   0.0000000), wk =   0.0661157
        k(   12) = (   0.1818182   0.3149183   0.0000000), wk =   0.0330579
        k(   13) = (   0.1818182   0.4198911   0.0000000), wk =   0.0661157
        k(   14) = (   0.1818182   0.5248639   0.0000000), wk =   0.0661157
        k(   15) = (   0.2727273   0.4723775   0.0000000), wk =   0.0330579
        k(   16) = (   0.2727273   0.5773503   0.0000000), wk =   0.0661157
        k(   17) = (  -0.0909091   0.0524864   0.0000000), wk =   0.0330579
        k(   18) = (  -0.1818182   0.1049728   0.0000000), wk =   0.0330579
        k(   19) = (  -0.2727273   0.1574592   0.0000000), wk =   0.0330579
        k(   20) = (  -0.3636364   0.2099456   0.0000000), wk =   0.0330579
        k(   21) = (  -0.4545455   0.2624319   0.0000000), wk =   0.0330579
        k(   22) = (  -0.0909091   0.1574592   0.0000000), wk =   0.0661157
        k(   23) = (  -0.0909091   0.2624319   0.0000000), wk =   0.0661157
        k(   24) = (  -0.1818182   0.2099456   0.0000000), wk =   0.0661157
        k(   25) = (  -0.0909091   0.3674047   0.0000000), wk =   0.0661157
        k(   26) = (  -0.2727273   0.2624319   0.0000000), wk =   0.0661157
        k(   27) = (  -0.0909091   0.4723775   0.0000000), wk =   0.0661157
        k(   28) = (  -0.3636364   0.3149183   0.0000000), wk =   0.0661157
        k(   29) = (  -0.4545455   0.3674047   0.0000000), wk =   0.0330579
        k(   30) = (  -0.1818182   0.3149183   0.0000000), wk =   0.0661157
        k(   31) = (  -0.1818182   0.4198911   0.0000000), wk =   0.0661157
        k(   32) = (  -0.2727273   0.3674047   0.0000000), wk =   0.0661157
        k(   33) = (  -0.1818182   0.5248639   0.0000000), wk =   0.0661157
        k(   34) = (  -0.3636364   0.4198911   0.0000000), wk =   0.0661157
        k(   35) = (  -0.2727273   0.4723775   0.0000000), wk =   0.0661157
        k(   36) = (  -0.3636364   0.5248639   0.0000000), wk =   0.0330579

                       cryst. coord.
        k(    1) = (   0.0000000   0.0000000   0.0000000), wk =   0.0165289
        k(    2) = (   0.0000000   0.0909091   0.0000000), wk =   0.0661157
        k(    3) = (   0.0000000   0.1818182   0.0000000), wk =   0.0661157
        k(    4) = (   0.0000000   0.2727273   0.0000000), wk =   0.0661157
        k(    5) = (   0.0000000   0.3636364   0.0000000), wk =   0.0661157
        k(    6) = (   0.0000000   0.4545455   0.0000000), wk =   0.0661157
        k(    7) = (   0.0909091   0.0909091   0.0000000), wk =   0.0330579
        k(    8) = (   0.0909091   0.1818182   0.0000000), wk =   0.0661157
        k(    9) = (   0.0909091   0.2727273   0.0000000), wk =   0.0661157
        k(   10) = (   0.0909091   0.3636364   0.0000000), wk =   0.0661157
        k(   11) = (   0.0909091   0.4545455   0.0000000), wk =   0.0661157
        k(   12) = (   0.1818182   0.1818182   0.0000000), wk =   0.0330579
        k(   13) = (   0.1818182   0.2727273   0.0000000), wk =   0.0661157
        k(   14) = (   0.1818182   0.3636364   0.0000000), wk =   0.0661157
        k(   15) = (   0.2727273   0.2727273   0.0000000), wk =   0.0330579
        k(   16) = (   0.2727273   0.3636364   0.0000000), wk =   0.0661157
        k(   17) = (  -0.0909091   0.0909091   0.0000000), wk =   0.0330579
        k(   18) = (  -0.1818182   0.1818182   0.0000000), wk =   0.0330579
        k(   19) = (  -0.2727273   0.2727273   0.0000000), wk =   0.0330579
        k(   20) = (  -0.3636364   0.3636364   0.0000000), wk =   0.0330579
        k(   21) = (  -0.4545455   0.4545455   0.0000000), wk =   0.0330579
        k(   22) = (  -0.0909091   0.1818182   0.0000000), wk =   0.0661157
        k(   23) = (  -0.0909091   0.2727273   0.0000000), wk =   0.0661157
        k(   24) = (  -0.1818182   0.2727273   0.0000000), wk =   0.0661157
        k(   25) = (  -0.0909091   0.3636364   0.0000000), wk =   0.0661157
        k(   26) = (  -0.2727273   0.3636364   0.0000000), wk =   0.0661157
        k(   27) = (  -0.0909091   0.4545455   0.0000000), wk =   0.0661157
        k(   28) = (  -0.3636364   0.4545455   0.0000000), wk =   0.0661157
        k(   29) = (  -0.4545455   0.5454545   0.0000000), wk =   0.0330579
        k(   30) = (  -0.1818182   0.3636364   0.0000000), wk =   0.0661157
        k(   31) = (  -0.1818182   0.4545455   0.0000000), wk =   0.0661157
        k(   32) = (  -0.2727273   0.4545455   0.0000000), wk =   0.0661157
        k(   33) = (  -0.1818182   0.5454545   0.0000000), wk =   0.0661157
        k(   34) = (  -0.3636364   0.5454545   0.0000000), wk =   0.0661157
        k(   35) = (  -0.2727273   0.5454545   0.0000000), wk =   0.0661157
        k(   36) = (  -0.3636364   0.6363636   0.0000000), wk =   0.0330579

     Dense  grid:   262273 G-vectors     FFT dimensions: (  60,  60, 192)

     Smooth grid:    92687 G-vectors     FFT dimensions: (  40,  40, 135)

     Dynamical RAM for                 wfc:       2.12 MB

     Dynamical RAM for     wfc (w. buffer):       2.12 MB

     Dynamical RAM for           str. fact:       4.00 MB

     Dynamical RAM for           local pot:       0.00 MB

     Dynamical RAM for          nlocal pot:      12.74 MB

     Dynamical RAM for                qrad:       2.23 MB

     Dynamical RAM for          rho,v,vnew:      27.83 MB

     Dynamical RAM for           G-vectors:      15.71 MB

     Dynamical RAM for          h,s,v(r/c):       0.11 MB

     Dynamical RAM for          <psi|beta>:       0.01 MB

     Dynamical RAM for                 psi:       8.49 MB

     Dynamical RAM for                hpsi:       8.49 MB

     Dynamical RAM for      wfcinit/wfcrot:       5.67 MB

     Estimated static dynamical RAM per process >      99.01 MB

     Estimated max dynamical RAM per process >     116.11 MB

     The potential is recalculated from file :
     ./out/aiida.save/charge-density

     Starting wfcs are   16 randomized atomic wfcs

     Band Structure Calculation
     Davidson diagonalization with overlap

     Computing kpt #:     1
     total cpu time spent up to now is        5.7 secs

     Computing kpt #:     2
     total cpu time spent up to now is        9.9 secs

     Computing kpt #:     3
     total cpu time spent up to now is       14.1 secs

     Computing kpt #:     4
     total cpu time spent up to now is       17.5 secs

     Computing kpt #:     5
     total cpu time spent up to now is       20.7 secs

     Computing kpt #:     6
     total cpu time spent up to now is       23.8 secs

     Computing kpt #:     7
     total cpu time spent up to now is       27.5 secs

     Computing kpt #:     8
     total cpu time spent up to now is       30.8 secs

     Computing kpt #:     9
     total cpu time spent up to now is       34.3 secs

     Computing kpt #:    10
     total cpu time spent up to now is       37.6 secs

     Computing kpt #:    11
     total cpu time spent up to now is       40.8 secs

     Computing kpt #:    12
     total cpu time spent up to now is       43.9 secs

     Computing kpt #:    13
     total cpu time spent up to now is       47.2 secs

     Computing kpt #:    14
     total cpu time spent up to now is       50.4 secs

     Computing kpt #:    15
     total cpu time spent up to now is       53.8 secs

     Computing kpt #:    16
     total cpu time spent up to now is       57.1 secs

     Computing kpt #:    17
     total cpu time spent up to now is       61.5 secs

     Computing kpt #:    18
     total cpu time spent up to now is       66.1 secs

     Computing kpt #:    19
     total cpu time spent up to now is       69.9 secs

     Computing kpt #:    20
     total cpu time spent up to now is       74.0 secs

     Computing kpt #:    21
     total cpu time spent up to now is       77.5 secs

     Computing kpt #:    22
     total cpu time spent up to now is       81.8 secs

     Computing kpt #:    23
     total cpu time spent up to now is       87.1 secs

     Computing kpt #:    24
     total cpu time spent up to now is       91.5 secs

     Computing kpt #:    25
     total cpu time spent up to now is       96.6 secs

     Computing kpt #:    26
     total cpu time spent up to now is      101.0 secs

     Computing kpt #:    27
     total cpu time spent up to now is      105.5 secs

     Computing kpt #:    28
     total cpu time spent up to now is      110.6 secs

     Computing kpt #:    29
     total cpu time spent up to now is      115.0 secs

     Computing kpt #:    30
     total cpu time spent up to now is      119.7 secs

     Computing kpt #:    31
     total cpu time spent up to now is      124.8 secs

     Computing kpt #:    32
     total cpu time spent up to now is      128.3 secs

     Computing kpt #:    33
     total cpu time spent up to now is      131.8 secs

     Computing kpt #:    34
     total cpu time spent up to now is      135.5 secs

     Computing kpt #:    35
     total cpu time spent up to now is      139.8 secs

     Computing kpt #:    36
     total cpu time spent up to now is      143.2 secs

     ethr =  2.50E-12,  avg # of iterations = 38.1

     total cpu time spent up to now is      143.2 secs

     End of band structure calculation

          k = 0.0000 0.0000 0.0000 ( 11549 PWs)   bands (ev):

   -13.8610 -10.5957  -8.9640  -8.9597  -5.8734  -5.5336  -5.5309  -3.4465
    -2.0669  -2.0636  -1.1914   0.8866

     occupation numbers 
     1.0000   1.0000   1.0000   1.0000   1.0000   1.0000   1.0000   0.5964
     0.0000   0.0000   0.0000   0.0000

          k = 0.0000 0.1050 0.0000 ( 11561 PWs)   bands (ev):

   -13.8324 -10.7628  -8.9826  -8.7937  -5.8463  -5.5353  -5.4539  -3.5505
    -2.0820  -1.9842  -1.1124   0.9372

     occupation numbers 
     1.0000   1.0000   1.0000   1.0000   1.0000   1.0000   1.0000   0.9419
     0.0000   0.0000   0.0000   0.0000

          k = 0.0000 0.2099 0.0000 ( 11573 PWs)   bands (ev):

   -13.7490 -11.1255  -9.0385  -8.4319  -5.8054  -5.4966  -5.2331  -3.7877
    -2.1257  -1.8087  -0.9087   0.7121

     occupation numbers 
     1.0000   1.0000   1.0000   1.0000   1.0000   1.0000   1.0000   1.0435
     0.0000   0.0000   0.0000   0.0000

          k = 0.0000 0.3149 0.0000 ( 11635 PWs)   bands (ev):

   -13.6195 -11.5234  -9.1065  -8.0558  -5.8103  -5.3530  -4.9155  -4.0309
    -2.1738  -1.6418  -0.7699   0.0585

     occupation numbers 
     1.0000   1.0000   1.0000   1.0000   1.0000   1.0000   1.0000   1.0006
     0.0000   0.0000   0.0000   0.0000

          k = 0.0000 0.4199 0.0000 ( 11607 PWs)   bands (ev):

   -13.4667 -11.8730  -9.1646  -7.7612  -5.8215  -5.2053  -4.5771  -4.1546
    -2.2017  -1.5763  -1.0333  -0.6125

     occupation numbers 
     1.0000   1.0000   1.0000   1.0000   1.0000   1.0000   1.0000   1.0000
     0.0000   0.0000   0.0000   0.0000

          k = 0.0000 0.5249 0.0000 ( 11619 PWs)   bands (ev):

   -13.3467 -12.0955  -9.1974  -7.6019  -5.8153  -5.1639  -4.3405  -4.1221
    -2.1990  -1.7188  -1.2000  -1.0401

     occupation numbers 
     1.0000   1.0000   1.0000   1.0000   1.0000   1.0000   1.0000   1.0001
     0.0000   0.0000   0.0000   0.0000

          k = 0.0909 0.1575 0.0000 ( 11556 PWs)   bands (ev):

   -13.7763 -11.0204  -9.0252  -8.5305  -5.8082  -5.5352  -5.2913  -3.7188
    -2.1167  -1.8542  -0.9696   0.7319

     occupation numbers 
     1.0000   1.0000   1.0000   1.0000   1.0000   1.0000   1.0000   1.0743
     0.0000   0.0000   0.0000   0.0000

          k = 0.0909 0.2624 0.0000 ( 11591 PWs)   bands (ev):

   -13.6691 -11.3851  -9.0975  -8.1596  -5.7997  -5.4594  -4.9994  -3.9555
    -2.1745  -1.6802  -0.7856   0.0865

     occupation numbers 
     1.0000   1.0000   1.0000   1.0000   1.0000   1.0000   1.0000   1.0033
     0.0000   0.0000   0.0000   0.0000

          k = 0.0909 0.3674 0.0000 ( 11605 PWs)   bands (ev):

   -13.5249 -11.7486  -9.1704  -7.8093  -5.8418  -5.2888  -4.6650  -4.1429
    -2.2337  -1.5573  -0.9401  -0.2699

     occupation numbers 
     1.0000   1.0000   1.0000   1.0000   1.0000   1.0000   1.0000   1.0000
     0.0000   0.0000   0.0000   0.0000

          k = 0.0909 0.4724 0.0000 ( 11585 PWs)   bands (ev):

   -13.3794 -12.0360  -9.2226  -7.5612  -5.8790  -5.1556  -4.4067  -4.1707
    -2.3059  -1.5713  -1.1569  -0.7500

     occupation numbers 
     1.0000   1.0000   1.0000   1.0000   1.0000   1.0000   1.0000   1.0000
     0.0000   0.0000   0.0000   0.0000

          k = 0.0909 0.5774 0.0000 ( 11644 PWs)   bands (ev):

   -13.3104 -12.1536  -9.2415  -7.4711  -5.8916  -5.1239  -4.2989  -4.1390
    -2.3660  -1.5630  -1.1910  -1.0398

     occupation numbers 
     1.0000   1.0000   1.0000   1.0000   1.0000   1.0000   1.0000   1.0000
     0.0000   0.0000   0.0000   0.0000

          k = 0.1818 0.3149 0.0000 ( 11594 PWs)   bands (ev):

   -13.5451 -11.7013  -9.1870  -7.8012  -5.8578  -5.3514  -4.6691  -4.1392
    -2.2607  -1.5467  -0.9213  -0.1913

     occupation numbers 
     1.0000   1.0000   1.0000   1.0000   1.0000   1.0000   1.0000   1.0000
     0.0000   0.0000   0.0000   0.0000

          k = 0.1818 0.4199 0.0000 ( 11584 PWs)   bands (ev):

   -13.3984 -11.9975  -9.2674  -7.4564  -5.9781  -5.1633  -4.4250  -4.2231
    -2.4024  -1.5087  -1.1112  -0.2772

     occupation numbers 
     1.0000   1.0000   1.0000   1.0000   1.0000   1.0000   1.0000   1.0000
     0.0000   0.0000   0.0000   0.0000

          k = 0.1818 0.5249 0.0000 ( 11609 PWs)   bands (ev):

   -13.2822 -12.1936  -9.3134  -7.2273  -6.0851  -5.0204  -4.3522  -4.1893
    -2.5699  -1.3536  -1.0962  -0.7606

     occupation numbers 
     1.0000   1.0000   1.0000   1.0000   1.0000   1.0000   1.0000   1.0000
     0.0000   0.0000   0.0000   0.0000

          k = 0.2727 0.4724 0.0000 ( 11574 PWs)   bands (ev):

   -13.2716 -12.2076  -9.3459  -7.0789  -6.2131  -4.9531  -4.4243  -4.1971
    -2.6424  -1.3205  -1.0519  -0.3276

     occupation numbers 
     1.0000   1.0000   1.0000   1.0000   1.0000   1.0000   1.0000   1.0000
     0.0000   0.0000   0.0000   0.0000

          k = 0.2727 0.5774 0.0000 ( 11584 PWs)   bands (ev):

   -13.2119 -12.2964  -9.3755  -6.8477  -6.3946  -4.8124  -4.4754  -4.2071
    -2.7479  -1.0948  -0.8453  -0.7112

     occupation numbers 
     1.0000   1.0000   1.0000   1.0000   1.0000   1.0000   1.0000   1.0000
     0.0000   0.0000   0.0000   0.0000

          k =-0.0909 0.0525 0.0000 ( 11561 PWs)   bands (ev):

   -13.8325 -10.7623  -8.9858  -8.7911  -5.8462  -5.5371  -5.4521  -3.5502
    -2.0843  -1.9823  -1.1124   0.9366

     occupation numbers 
     1.0000   1.0000   1.0000   1.0000   1.0000   1.0000   1.0000   0.9411
     0.0000   0.0000   0.0000   0.0000

          k =-0.1818 0.1050 0.0000 ( 11573 PWs)   bands (ev):

   -13.7492 -11.1243  -9.0415  -8.4306  -5.8052  -5.4977  -5.2316  -3.7869
    -2.1276  -1.8078  -0.9085   0.7103

     occupation numbers 
     1.0000   1.0000   1.0000   1.0000   1.0000   1.0000   1.0000   1.0439
     0.0000   0.0000   0.0000   0.0000

          k =-0.2727 0.1575 0.0000 ( 11635 PWs)   bands (ev):

   -13.6200 -11.5214  -9.1093  -8.0559  -5.8094  -5.3535  -4.9147  -4.0297
    -2.1751  -1.6422  -0.7695   0.0618

     occupation numbers 
     1.0000   1.0000   1.0000   1.0000   1.0000   1.0000   1.0000   1.0006
     0.0000   0.0000   0.0000   0.0000

          k =-0.3636 0.2099 0.0000 ( 11607 PWs)   bands (ev):

   -13.4677 -11.8704  -9.1672  -7.7628  -5.8191  -5.2059  -4.5772  -4.1529
    -2.2019  -1.5782  -1.0324  -0.6095

     occupation numbers 
     1.0000   1.0000   1.0000   1.0000   1.0000   1.0000   1.0000   1.0000
     0.0000   0.0000   0.0000   0.0000

          k =-0.4545 0.2624 0.0000 ( 11619 PWs)   bands (ev):

   -13.3482 -12.0923  -9.1999  -7.6045  -5.8116  -5.1649  -4.3415  -4.1198
    -2.1980  -1.7214  -1.1993  -1.0375

     occupation numbers 
     1.0000   1.0000   1.0000   1.0000   1.0000   1.0000   1.0000   1.0001
     0.0000   0.0000   0.0000   0.0000

          k =-0.0909 0.1575 0.0000 ( 11556 PWs)   bands (ev):

   -13.7764 -11.0194  -9.0282  -8.5287  -5.8083  -5.5368  -5.2893  -3.7182
    -2.1190  -1.8527  -0.9695   0.7344

     occupation numbers 
     1.0000   1.0000   1.0000   1.0000   1.0000   1.0000   1.0000   1.0745
     0.0000   0.0000   0.0000   0.0000

          k =-0.0909 0.2624 0.0000 ( 11591 PWs)   bands (ev):

   -13.6693 -11.3840  -9.0994  -8.1589  -5.8004  -5.4601  -4.9977  -3.9550
    -2.1762  -1.6793  -0.7854   0.0903

     occupation numbers 
     1.0000   1.0000   1.0000   1.0000   1.0000   1.0000   1.0000   1.0033
     0.0000   0.0000   0.0000   0.0000

          k =-0.1818 0.2099 0.0000 ( 11591 PWs)   bands (ev):

   -13.6695 -11.3833  -9.1006  -8.1588  -5.7998  -5.4603  -4.9975  -3.9545
    -2.1767  -1.6795  -0.7853   0.0901

     occupation numbers 
     1.0000   1.0000   1.0000   1.0000   1.0000   1.0000   1.0000   1.0033
     0.0000   0.0000   0.0000   0.0000

          k =-0.0909 0.3674 0.0000 ( 11605 PWs)   bands (ev):

   -13.5251 -11.7478  -9.1716  -7.8090  -5.8426  -5.2889  -4.6639  -4.1424
    -2.2350  -1.5560  -0.9387  -0.2692

     occupation numbers 
     1.0000   1.0000   1.0000   1.0000   1.0000   1.0000   1.0000   1.0000
     0.0000   0.0000   0.0000   0.0000

          k =-0.2727 0.2624 0.0000 ( 11605 PWs)   bands (ev):

   -13.5256 -11.7462  -9.1733  -7.8099  -5.8409  -5.2894  -4.6639  -4.1415
    -2.2352  -1.5573  -0.9385  -0.2675

     occupation numbers 
     1.0000   1.0000   1.0000   1.0000   1.0000   1.0000   1.0000   1.0000
     0.0000   0.0000   0.0000   0.0000

          k =-0.0909 0.4724 0.0000 ( 11585 PWs)   bands (ev):

   -13.3796 -12.0355  -9.2231  -7.5610  -5.8796  -5.1553  -4.4072  -4.1696
    -2.3067  -1.5687  -1.1568  -0.7518

     occupation numbers 
     1.0000   1.0000   1.0000   1.0000   1.0000   1.0000   1.0000   1.0000
     0.0000   0.0000   0.0000   0.0000

          k =-0.3636 0.3149 0.0000 ( 11585 PWs)   bands (ev):

   -13.3806 -12.0331  -9.2251  -7.5632  -5.8765  -5.1564  -4.4070  -4.1686
    -2.3063  -1.5713  -1.1562  -0.7485

     occupation numbers 
     1.0000   1.0000   1.0000   1.0000   1.0000   1.0000   1.0000   1.0000
     0.0000   0.0000   0.0000   0.0000

          k =-0.4545 0.3674 0.0000 ( 11644 PWs)   bands (ev):

   -13.3119 -12.1505  -9.2437  -7.4738  -5.8880  -5.1251  -4.2992  -4.1371
    -2.3657  -1.5646  -1.1900  -1.0378

     occupation numbers 
     1.0000   1.0000   1.0000   1.0000   1.0000   1.0000   1.0000   1.0000
     0.0000   0.0000   0.0000   0.0000

          k =-0.1818 0.3149 0.0000 ( 11594 PWs)   bands (ev):

   -13.5456 -11.6995  -9.1893  -7.8011  -5.8583  -5.3517  -4.6673  -4.1383
    -2.2626  -1.5455  -0.9198  -0.1895

     occupation numbers 
     1.0000   1.0000   1.0000   1.0000   1.0000   1.0000   1.0000   1.0000
     0.0000   0.0000   0.0000   0.0000

          k =-0.1818 0.4199 0.0000 ( 11584 PWs)   bands (ev):

   -13.3989 -11.9961  -9.2687  -7.4565  -5.9786  -5.1633  -4.4247  -4.2216
    -2.4035  -1.5058  -1.1108  -0.2785

     occupation numbers 
     1.0000   1.0000   1.0000   1.0000   1.0000   1.0000   1.0000   1.0000
     0.0000   0.0000   0.0000   0.0000

          k =-0.2727 0.3674 0.0000 ( 11584 PWs)   bands (ev):

   -13.3993 -11.9952  -9.2695  -7.4574  -5.9772  -5.1639  -4.4242  -4.2215
    -2.4034  -1.5067  -1.1107  -0.2768

     occupation numbers 
     1.0000   1.0000   1.0000   1.0000   1.0000   1.0000   1.0000   1.0000
     0.0000   0.0000   0.0000   0.0000

          k =-0.1818 0.5249 0.0000 ( 11609 PWs)   bands (ev):

   -13.2825 -12.1931  -9.3138  -7.2274  -6.0853  -5.0202  -4.3533  -4.1877
    -2.5702  -1.3507  -1.0964  -0.7630

     occupation numbers 
     1.0000   1.0000   1.0000   1.0000   1.0000   1.0000   1.0000   1.0000
     0.0000   0.0000   0.0000   0.0000

          k =-0.3636 0.4199 0.0000 ( 11609 PWs)   bands (ev):

   -13.2834 -12.1912  -9.3151  -7.2297  -6.0826  -5.0215  -4.3514  -4.1880
    -2.5702  -1.3521  -1.0959  -0.7601

     occupation numbers 
     1.0000   1.0000   1.0000   1.0000   1.0000   1.0000   1.0000   1.0000
     0.0000   0.0000   0.0000   0.0000

          k =-0.2727 0.4724 0.0000 ( 11574 PWs)   bands (ev):

   -13.2723 -12.2062  -9.3470  -7.0800  -6.2123  -4.9536  -4.4241  -4.1956
    -2.6428  -1.3177  -1.0518  -0.3301

     occupation numbers 
     1.0000   1.0000   1.0000   1.0000   1.0000   1.0000   1.0000   1.0000
     0.0000   0.0000   0.0000   0.0000

          k =-0.3636 0.5249 0.0000 ( 11584 PWs)   bands (ev):

   -13.2124 -12.2954  -9.3761  -6.8499  -6.3923  -4.8136  -4.4740  -4.2070
    -2.7480  -1.0950  -0.8423  -0.7123

     occupation numbers 
     1.0000   1.0000   1.0000   1.0000   1.0000   1.0000   1.0000   1.0000
     0.0000   0.0000   0.0000   0.0000

     the Fermi energy is    -3.3929 ev

     Writing output data file aiida.save/

     init_run     :      1.12s CPU      1.22s WALL (       1 calls)
     electrons    :    206.91s CPU    141.83s WALL (       1 calls)

     Called by init_run:
     wfcinit      :      0.00s CPU      0.00s WALL (       1 calls)
     wfcinit:atom :      0.20s CPU      0.19s WALL (      36 calls)
     wfcinit:wfcr :      8.21s CPU      6.80s WALL (      36 calls)
     potinit      :      0.40s CPU      0.45s WALL (       1 calls)
     hinit0       :      0.60s CPU      0.62s WALL (       1 calls)

     Called by electrons:
     c_bands      :    206.91s CPU    141.82s WALL (       1 calls)
     v_of_rho     :      0.33s CPU      0.38s WALL (       1 calls)
     v_h          :      0.03s CPU      0.03s WALL (       1 calls)
     v_xc         :      0.30s CPU      0.35s WALL (       1 calls)

     Called by c_bands:
     init_us_2    :      0.36s CPU      0.35s WALL (      36 calls)
     cegterg      :    192.90s CPU    130.64s WALL (      83 calls)

     Called by sum_band:

     Called by *egterg:
     h_psi        :    170.47s CPU    119.19s WALL (    1491 calls)
     g_psi        :      1.90s CPU      0.96s WALL (    1372 calls)
     cdiaghg      :      2.19s CPU      1.45s WALL (    1408 calls)
     cegterg:over :     11.11s CPU      6.73s WALL (    1372 calls)
     cegterg:upda :      8.53s CPU      4.72s WALL (    1372 calls)
     cegterg:last :      4.45s CPU      2.04s WALL (     277 calls)

     Called by h_psi:
     h_psi:pot    :    169.92s CPU    118.87s WALL (    1491 calls)
     h_psi:calbec :     16.10s CPU     10.87s WALL (    1491 calls)
     vloc_psi     :    140.25s CPU    101.18s WALL (    1491 calls)
     add_vuspsi   :     13.56s CPU      6.81s WALL (    1491 calls)

     General routines
     calbec       :     16.09s CPU     10.87s WALL (    1491 calls)
     fft          :      0.24s CPU      0.24s WALL (      12 calls)
     ffts         :      0.01s CPU      0.01s WALL (       1 calls)
     fftw         :    123.56s CPU     89.81s WALL (   19564 calls)
     interpolate  :      0.04s CPU      0.04s WALL (       1 calls)
     davcio       :      0.13s CPU      0.16s WALL (      72 calls)

     Parallel routines

     PWSCF        :   3m28.28s CPU   2m23.46s WALL


   This run was terminated on:  20:32:27   8Jan2025            

=------------------------------------------------------------------------------=
   JOB DONE.
=------------------------------------------------------------------------------=
