
     Program PWSCF v.6.4.1 starts on  8Jan2025 at 20:33:13 

     This program is part of the open-source Quantum ESPRESSO suite
     for quantum simulation of materials; please cite
         "P. Giannozzi et al., J. Phys.:Condens. Matter 21 395502 (2009);
         "P. Giannozzi et al., J. Phys.:Condens. Matter 29 465901 (2017);
          URL http://www.quantum-espresso.org", 
     in publications or presentations arising from this work. More details at
     http://www.quantum-espresso.org/quote

     Parallel version (MPI), running on     1 processors

     MPI processes distributed on     1 nodes
     Waiting for input...
     Reading input from standard input

     Current dimensions of program PWSCF are:
     Max number of different atomic species (ntypx) = 10
     Max number of k-points (npk) =  40000
     Max angular momentum in pseudopotentials (lmaxx) =  3

     Atomic positions and unit cell read from directory:
     ./out/aiida.save/


     Subspace diagonalization in iterative solution of the eigenvalue problem:
     a serial algorithm will be used

     Message from routine setup:
     DEPRECATED: symmetry with ibrav=0, use correct ibrav instead

     G-vector sticks info
     --------------------
     sticks:   dense  smooth     PW     G-vecs:    dense   smooth      PW
     Sum        2107    1057    301               262273    92687   14147



     bravais-lattice index     =            0
     lattice parameter (alat)  =      11.2987  a.u.
     unit-cell volume          =    4178.4920 (a.u.)^3
     number of atoms/cell      =            4
     number of atomic types    =            1
     number of electrons       =        16.00
     number of Kohn-Sham states=           12
     kinetic-energy cutoff     =      30.0000  Ry
     charge density cutoff     =     240.0000  Ry
     Exchange-correlation      = PBE ( 1  4  3  4 0 0)

     celldm(1)=  11.298741  celldm(2)=   0.000000  celldm(3)=   0.000000
     celldm(4)=   0.000000  celldm(5)=   0.000000  celldm(6)=   0.000000

     crystal axes: (cart. coord. in units of alat)
               a(1) = (   1.000000   0.000000   0.000000 )  
               a(2) = (  -0.500000   0.866025   0.000000 )  
               a(3) = (   0.000000   0.000000   3.345021 )  

     reciprocal axes: (cart. coord. in units 2 pi/alat)
               b(1) = (  1.000000  0.577350 -0.000000 )  
               b(2) = (  0.000000  1.154701  0.000000 )  
               b(3) = (  0.000000 -0.000000  0.298952 )  


     PseudoPot. # 1 for Si read from file:
     ../../pseudo/Si.pbe.upf
     MD5 check sum: 3f156eda2279325da2083dedf8f436a5
     Pseudo is Norm-conserving + core correction, Zval =  4.0
     Generated using ONCVPSP code by D. R. Hamann
     Using radial grid of 1510 points,  6 beta functions with: 
                l(1) =   0
                l(2) =   0
                l(3) =   1
                l(4) =   1
                l(5) =   2
                l(6) =   2

     atomic species   valence    mass     pseudopotential
        Si             4.00    28.08550     Si( 1.00)

      2 Sym. Ops. (no inversion) found


                                    s                        frac. trans.

      isym =  1     identity                                     

 cryst.   s( 1) = (     1          0          0      )
                  (     0          1          0      )
                  (     0          0          1      )

 cart.    s( 1) = (  1.0000000  0.0000000  0.0000000 )
                  (  0.0000000  1.0000000  0.0000000 )
                  (  0.0000000  0.0000000  1.0000000 )


      isym =  2     inv. 180 deg rotation - cryst. axis [1,1,0]  

 cryst.   s( 2) = (     0         -1          0      )
                  (    -1          0          0      )
                  (     0          0          1      )

 cart.    s( 2) = (  0.5000000 -0.8660254  0.0000000 )
                  ( -0.8660254 -0.5000000  0.0000000 )
                  (  0.0000000  0.0000000  1.0000000 )


   Cartesian axes

     site n.     atom                  positions (alat units)
         1           Si  tau(   1) = (   0.2500000   0.4330127   1.6725104  )
         2           Si  tau(   2) = (   0.4420000   0.1004589   1.6725104  )
         3           Si  tau(   3) = (   0.6340000   0.4330127   1.6725104  )
         4           Si  tau(   4) = (  -0.0582500   0.6109809   1.8464515  )

   Crystallographic axes

     site n.     atom                  positions (cryst. coord.)
         1           Si  tau(   1) = (  0.5000000  0.5000000  0.5000000  )
         2           Si  tau(   2) = (  0.5000000  0.1160000  0.5000000  )
         3           Si  tau(   3) = (  0.8840000  0.5000000  0.5000000  )
         4           Si  tau(   4) = (  0.2945000  0.7055000  0.5520000  )

     number of k points=    91  Marzari-Vanderbilt smearing, width (Ry)=  0.0147
                       cart. coord. in units 2pi/alat
        k(    1) = (   0.0000000   0.0000000   0.0000000), wk =   0.0219780
        k(    2) = (   0.0000000   0.0192450   0.0000000), wk =   0.0219780
        k(    3) = (   0.0000000   0.0384900   0.0000000), wk =   0.0219780
        k(    4) = (   0.0000000   0.0577350   0.0000000), wk =   0.0219780
        k(    5) = (   0.0000000   0.0769800   0.0000000), wk =   0.0219780
        k(    6) = (   0.0000000   0.0962250   0.0000000), wk =   0.0219780
        k(    7) = (   0.0000000   0.1154701   0.0000000), wk =   0.0219780
        k(    8) = (   0.0000000   0.1347151   0.0000000), wk =   0.0219780
        k(    9) = (   0.0000000   0.1539601   0.0000000), wk =   0.0219780
        k(   10) = (   0.0000000   0.1732051   0.0000000), wk =   0.0219780
        k(   11) = (   0.0000000   0.1924501   0.0000000), wk =   0.0219780
        k(   12) = (   0.0000000   0.2116951   0.0000000), wk =   0.0219780
        k(   13) = (   0.0000000   0.2309401   0.0000000), wk =   0.0219780
        k(   14) = (   0.0000000   0.2501851   0.0000000), wk =   0.0219780
        k(   15) = (   0.0000000   0.2694301   0.0000000), wk =   0.0219780
        k(   16) = (   0.0000000   0.2886751   0.0000000), wk =   0.0219780
        k(   17) = (   0.0000000   0.3079201   0.0000000), wk =   0.0219780
        k(   18) = (   0.0000000   0.3271652   0.0000000), wk =   0.0219780
        k(   19) = (   0.0000000   0.3464102   0.0000000), wk =   0.0219780
        k(   20) = (   0.0000000   0.3656552   0.0000000), wk =   0.0219780
        k(   21) = (   0.0000000   0.3849002   0.0000000), wk =   0.0219780
        k(   22) = (   0.0000000   0.4041452   0.0000000), wk =   0.0219780
        k(   23) = (   0.0000000   0.4233902   0.0000000), wk =   0.0219780
        k(   24) = (   0.0000000   0.4426352   0.0000000), wk =   0.0219780
        k(   25) = (   0.0000000   0.4618802   0.0000000), wk =   0.0219780
        k(   26) = (   0.0000000   0.4811252   0.0000000), wk =   0.0219780
        k(   27) = (   0.0000000   0.5003702   0.0000000), wk =   0.0219780
        k(   28) = (   0.0000000   0.5196152   0.0000000), wk =   0.0219780
        k(   29) = (   0.0000000   0.5388603   0.0000000), wk =   0.0219780
        k(   30) = (   0.0000000   0.5581053   0.0000000), wk =   0.0219780
        k(   31) = (   0.0000000   0.5773503   0.0000000), wk =   0.0219780
        k(   32) = (   0.0111100   0.5773483   0.0000000), wk =   0.0219780
        k(   33) = (   0.0222200   0.5773464   0.0000000), wk =   0.0219780
        k(   34) = (   0.0333300   0.5773445   0.0000000), wk =   0.0219780
        k(   35) = (   0.0444400   0.5773426   0.0000000), wk =   0.0219780
        k(   36) = (   0.0555500   0.5773406   0.0000000), wk =   0.0219780
        k(   37) = (   0.0666600   0.5773387   0.0000000), wk =   0.0219780
        k(   38) = (   0.0777700   0.5773368   0.0000000), wk =   0.0219780
        k(   39) = (   0.0888800   0.5773349   0.0000000), wk =   0.0219780
        k(   40) = (   0.0999900   0.5773329   0.0000000), wk =   0.0219780
        k(   41) = (   0.1111000   0.5773310   0.0000000), wk =   0.0219780
        k(   42) = (   0.1222100   0.5773291   0.0000000), wk =   0.0219780
        k(   43) = (   0.1333200   0.5773272   0.0000000), wk =   0.0219780
        k(   44) = (   0.1444300   0.5773253   0.0000000), wk =   0.0219780
        k(   45) = (   0.1555400   0.5773233   0.0000000), wk =   0.0219780
        k(   46) = (   0.1666500   0.5773214   0.0000000), wk =   0.0219780
        k(   47) = (   0.1777600   0.5773195   0.0000000), wk =   0.0219780
        k(   48) = (   0.1888700   0.5773176   0.0000000), wk =   0.0219780
        k(   49) = (   0.1999800   0.5773156   0.0000000), wk =   0.0219780
        k(   50) = (   0.2110900   0.5773137   0.0000000), wk =   0.0219780
        k(   51) = (   0.2222000   0.5773118   0.0000000), wk =   0.0219780
        k(   52) = (   0.2333100   0.5773099   0.0000000), wk =   0.0219780
        k(   53) = (   0.2444200   0.5773079   0.0000000), wk =   0.0219780
        k(   54) = (   0.2555300   0.5773060   0.0000000), wk =   0.0219780
        k(   55) = (   0.2666400   0.5773041   0.0000000), wk =   0.0219780
        k(   56) = (   0.2777500   0.5773022   0.0000000), wk =   0.0219780
        k(   57) = (   0.2888600   0.5773002   0.0000000), wk =   0.0219780
        k(   58) = (   0.2999700   0.5772983   0.0000000), wk =   0.0219780
        k(   59) = (   0.3110800   0.5772964   0.0000000), wk =   0.0219780
        k(   60) = (   0.3221900   0.5772945   0.0000000), wk =   0.0219780
        k(   61) = (   0.3333000   0.5772925   0.0000000), wk =   0.0219780
        k(   62) = (   0.3221900   0.5580494   0.0000000), wk =   0.0219780
        k(   63) = (   0.3110800   0.5388064   0.0000000), wk =   0.0219780
        k(   64) = (   0.2999700   0.5195633   0.0000000), wk =   0.0219780
        k(   65) = (   0.2888600   0.5003202   0.0000000), wk =   0.0219780
        k(   66) = (   0.2777500   0.4810771   0.0000000), wk =   0.0219780
        k(   67) = (   0.2666400   0.4618340   0.0000000), wk =   0.0219780
        k(   68) = (   0.2555300   0.4425909   0.0000000), wk =   0.0219780
        k(   69) = (   0.2444200   0.4233479   0.0000000), wk =   0.0219780
        k(   70) = (   0.2333100   0.4041048   0.0000000), wk =   0.0219780
        k(   71) = (   0.2222000   0.3848617   0.0000000), wk =   0.0219780
        k(   72) = (   0.2110900   0.3656186   0.0000000), wk =   0.0219780
        k(   73) = (   0.1999800   0.3463755   0.0000000), wk =   0.0219780
        k(   74) = (   0.1888700   0.3271324   0.0000000), wk =   0.0219780
        k(   75) = (   0.1777600   0.3078894   0.0000000), wk =   0.0219780
        k(   76) = (   0.1666500   0.2886463   0.0000000), wk =   0.0219780
        k(   77) = (   0.1555400   0.2694032   0.0000000), wk =   0.0219780
        k(   78) = (   0.1444300   0.2501601   0.0000000), wk =   0.0219780
        k(   79) = (   0.1333200   0.2309170   0.0000000), wk =   0.0219780
        k(   80) = (   0.1222100   0.2116739   0.0000000), wk =   0.0219780
        k(   81) = (   0.1111000   0.1924308   0.0000000), wk =   0.0219780
        k(   82) = (   0.0999900   0.1731878   0.0000000), wk =   0.0219780
        k(   83) = (   0.0888800   0.1539447   0.0000000), wk =   0.0219780
        k(   84) = (   0.0777700   0.1347016   0.0000000), wk =   0.0219780
        k(   85) = (   0.0666600   0.1154585   0.0000000), wk =   0.0219780
        k(   86) = (   0.0555500   0.0962154   0.0000000), wk =   0.0219780
        k(   87) = (   0.0444400   0.0769723   0.0000000), wk =   0.0219780
        k(   88) = (   0.0333300   0.0577293   0.0000000), wk =   0.0219780
        k(   89) = (   0.0222200   0.0384862   0.0000000), wk =   0.0219780
        k(   90) = (   0.0111100   0.0192431   0.0000000), wk =   0.0219780
        k(   91) = (   0.0000000   0.0000000   0.0000000), wk =   0.0219780

                       cryst. coord.
        k(    1) = (   0.0000000   0.0000000   0.0000000), wk =   0.0219780
        k(    2) = (   0.0000000   0.0166667   0.0000000), wk =   0.0219780
        k(    3) = (   0.0000000   0.0333333   0.0000000), wk =   0.0219780
        k(    4) = (   0.0000000   0.0500000   0.0000000), wk =   0.0219780
        k(    5) = (   0.0000000   0.0666667   0.0000000), wk =   0.0219780
        k(    6) = (   0.0000000   0.0833333   0.0000000), wk =   0.0219780
        k(    7) = (   0.0000000   0.1000000   0.0000000), wk =   0.0219780
        k(    8) = (   0.0000000   0.1166667   0.0000000), wk =   0.0219780
        k(    9) = (   0.0000000   0.1333333   0.0000000), wk =   0.0219780
        k(   10) = (   0.0000000   0.1500000   0.0000000), wk =   0.0219780
        k(   11) = (   0.0000000   0.1666667   0.0000000), wk =   0.0219780
        k(   12) = (   0.0000000   0.1833333   0.0000000), wk =   0.0219780
        k(   13) = (   0.0000000   0.2000000   0.0000000), wk =   0.0219780
        k(   14) = (   0.0000000   0.2166667   0.0000000), wk =   0.0219780
        k(   15) = (   0.0000000   0.2333333   0.0000000), wk =   0.0219780
        k(   16) = (   0.0000000   0.2500000   0.0000000), wk =   0.0219780
        k(   17) = (   0.0000000   0.2666667   0.0000000), wk =   0.0219780
        k(   18) = (   0.0000000   0.2833333   0.0000000), wk =   0.0219780
        k(   19) = (   0.0000000   0.3000000   0.0000000), wk =   0.0219780
        k(   20) = (   0.0000000   0.3166667   0.0000000), wk =   0.0219780
        k(   21) = (   0.0000000   0.3333333   0.0000000), wk =   0.0219780
        k(   22) = (   0.0000000   0.3500000   0.0000000), wk =   0.0219780
        k(   23) = (   0.0000000   0.3666667   0.0000000), wk =   0.0219780
        k(   24) = (   0.0000000   0.3833333   0.0000000), wk =   0.0219780
        k(   25) = (   0.0000000   0.4000000   0.0000000), wk =   0.0219780
        k(   26) = (   0.0000000   0.4166667   0.0000000), wk =   0.0219780
        k(   27) = (   0.0000000   0.4333333   0.0000000), wk =   0.0219780
        k(   28) = (   0.0000000   0.4500000   0.0000000), wk =   0.0219780
        k(   29) = (   0.0000000   0.4666667   0.0000000), wk =   0.0219780
        k(   30) = (   0.0000000   0.4833333   0.0000000), wk =   0.0219780
        k(   31) = (   0.0000000   0.5000000   0.0000000), wk =   0.0219780
        k(   32) = (   0.0111100   0.4944433   0.0000000), wk =   0.0219780
        k(   33) = (   0.0222200   0.4888867   0.0000000), wk =   0.0219780
        k(   34) = (   0.0333300   0.4833300   0.0000000), wk =   0.0219780
        k(   35) = (   0.0444400   0.4777733   0.0000000), wk =   0.0219780
        k(   36) = (   0.0555500   0.4722167   0.0000000), wk =   0.0219780
        k(   37) = (   0.0666600   0.4666600   0.0000000), wk =   0.0219780
        k(   38) = (   0.0777700   0.4611033   0.0000000), wk =   0.0219780
        k(   39) = (   0.0888800   0.4555467   0.0000000), wk =   0.0219780
        k(   40) = (   0.0999900   0.4499900   0.0000000), wk =   0.0219780
        k(   41) = (   0.1111000   0.4444333   0.0000000), wk =   0.0219780
        k(   42) = (   0.1222100   0.4388767   0.0000000), wk =   0.0219780
        k(   43) = (   0.1333200   0.4333200   0.0000000), wk =   0.0219780
        k(   44) = (   0.1444300   0.4277633   0.0000000), wk =   0.0219780
        k(   45) = (   0.1555400   0.4222067   0.0000000), wk =   0.0219780
        k(   46) = (   0.1666500   0.4166500   0.0000000), wk =   0.0219780
        k(   47) = (   0.1777600   0.4110933   0.0000000), wk =   0.0219780
        k(   48) = (   0.1888700   0.4055367   0.0000000), wk =   0.0219780
        k(   49) = (   0.1999800   0.3999800   0.0000000), wk =   0.0219780
        k(   50) = (   0.2110900   0.3944233   0.0000000), wk =   0.0219780
        k(   51) = (   0.2222000   0.3888667   0.0000000), wk =   0.0219780
        k(   52) = (   0.2333100   0.3833100   0.0000000), wk =   0.0219780
        k(   53) = (   0.2444200   0.3777533   0.0000000), wk =   0.0219780
        k(   54) = (   0.2555300   0.3721967   0.0000000), wk =   0.0219780
        k(   55) = (   0.2666400   0.3666400   0.0000000), wk =   0.0219780
        k(   56) = (   0.2777500   0.3610833   0.0000000), wk =   0.0219780
        k(   57) = (   0.2888600   0.3555267   0.0000000), wk =   0.0219780
        k(   58) = (   0.2999700   0.3499700   0.0000000), wk =   0.0219780
        k(   59) = (   0.3110800   0.3444133   0.0000000), wk =   0.0219780
        k(   60) = (   0.3221900   0.3388567   0.0000000), wk =   0.0219780
        k(   61) = (   0.3333000   0.3333000   0.0000000), wk =   0.0219780
        k(   62) = (   0.3221900   0.3221900   0.0000000), wk =   0.0219780
        k(   63) = (   0.3110800   0.3110800   0.0000000), wk =   0.0219780
        k(   64) = (   0.2999700   0.2999700   0.0000000), wk =   0.0219780
        k(   65) = (   0.2888600   0.2888600   0.0000000), wk =   0.0219780
        k(   66) = (   0.2777500   0.2777500   0.0000000), wk =   0.0219780
        k(   67) = (   0.2666400   0.2666400   0.0000000), wk =   0.0219780
        k(   68) = (   0.2555300   0.2555300   0.0000000), wk =   0.0219780
        k(   69) = (   0.2444200   0.2444200   0.0000000), wk =   0.0219780
        k(   70) = (   0.2333100   0.2333100   0.0000000), wk =   0.0219780
        k(   71) = (   0.2222000   0.2222000   0.0000000), wk =   0.0219780
        k(   72) = (   0.2110900   0.2110900   0.0000000), wk =   0.0219780
        k(   73) = (   0.1999800   0.1999800   0.0000000), wk =   0.0219780
        k(   74) = (   0.1888700   0.1888700   0.0000000), wk =   0.0219780
        k(   75) = (   0.1777600   0.1777600   0.0000000), wk =   0.0219780
        k(   76) = (   0.1666500   0.1666500   0.0000000), wk =   0.0219780
        k(   77) = (   0.1555400   0.1555400   0.0000000), wk =   0.0219780
        k(   78) = (   0.1444300   0.1444300   0.0000000), wk =   0.0219780
        k(   79) = (   0.1333200   0.1333200   0.0000000), wk =   0.0219780
        k(   80) = (   0.1222100   0.1222100   0.0000000), wk =   0.0219780
        k(   81) = (   0.1111000   0.1111000   0.0000000), wk =   0.0219780
        k(   82) = (   0.0999900   0.0999900   0.0000000), wk =   0.0219780
        k(   83) = (   0.0888800   0.0888800   0.0000000), wk =   0.0219780
        k(   84) = (   0.0777700   0.0777700   0.0000000), wk =   0.0219780
        k(   85) = (   0.0666600   0.0666600   0.0000000), wk =   0.0219780
        k(   86) = (   0.0555500   0.0555500   0.0000000), wk =   0.0219780
        k(   87) = (   0.0444400   0.0444400   0.0000000), wk =   0.0219780
        k(   88) = (   0.0333300   0.0333300   0.0000000), wk =   0.0219780
        k(   89) = (   0.0222200   0.0222200   0.0000000), wk =   0.0219780
        k(   90) = (   0.0111100   0.0111100   0.0000000), wk =   0.0219780
        k(   91) = (   0.0000000   0.0000000   0.0000000), wk =   0.0219780

     Dense  grid:   262273 G-vectors     FFT dimensions: (  60,  60, 192)

     Smooth grid:    92687 G-vectors     FFT dimensions: (  40,  40, 135)

     Dynamical RAM for                 wfc:       2.12 MB

     Dynamical RAM for     wfc (w. buffer):       2.12 MB

     Dynamical RAM for           str. fact:       4.00 MB

     Dynamical RAM for           local pot:       0.00 MB

     Dynamical RAM for          nlocal pot:      12.74 MB

     Dynamical RAM for                qrad:       2.23 MB

     Dynamical RAM for          rho,v,vnew:      27.83 MB

     Dynamical RAM for           G-vectors:      15.71 MB

     Dynamical RAM for          h,s,v(r/c):       0.11 MB

     Dynamical RAM for          <psi|beta>:       0.01 MB

     Dynamical RAM for                 psi:       8.49 MB

     Dynamical RAM for                hpsi:       8.49 MB

     Dynamical RAM for      wfcinit/wfcrot:       5.67 MB

     Estimated static dynamical RAM per process >      99.01 MB

     Estimated max dynamical RAM per process >     116.11 MB

     The potential is recalculated from file :
     ./out/aiida.save/charge-density

     Starting wfcs are   16 randomized atomic wfcs

     Band Structure Calculation
     Davidson diagonalization with overlap

     Computing kpt #:     1
     total cpu time spent up to now is        4.9 secs

     Computing kpt #:     2
     total cpu time spent up to now is       10.7 secs

     Computing kpt #:     3
     total cpu time spent up to now is       15.4 secs

     Computing kpt #:     4
     total cpu time spent up to now is       22.0 secs

     Computing kpt #:     5
     total cpu time spent up to now is       26.9 secs

     Computing kpt #:     6
     total cpu time spent up to now is       33.2 secs

     Computing kpt #:     7
     total cpu time spent up to now is       39.2 secs

     Computing kpt #:     8
     total cpu time spent up to now is       44.8 secs

     Computing kpt #:     9
     total cpu time spent up to now is       50.6 secs

     Computing kpt #:    10
     total cpu time spent up to now is       55.6 secs

     Computing kpt #:    11
     total cpu time spent up to now is       61.2 secs

     Computing kpt #:    12
     total cpu time spent up to now is       67.1 secs

     Computing kpt #:    13
     total cpu time spent up to now is       73.0 secs

     Computing kpt #:    14
     total cpu time spent up to now is       79.6 secs

     Computing kpt #:    15
     total cpu time spent up to now is       85.1 secs

     Computing kpt #:    16
     total cpu time spent up to now is       90.6 secs

     Computing kpt #:    17
     total cpu time spent up to now is       95.0 secs

     Computing kpt #:    18
     total cpu time spent up to now is      100.2 secs

     Computing kpt #:    19
     total cpu time spent up to now is      105.1 secs

     Computing kpt #:    20
     total cpu time spent up to now is      109.7 secs

     Computing kpt #:    21
     total cpu time spent up to now is      114.1 secs

     Computing kpt #:    22
     total cpu time spent up to now is      119.1 secs

     Computing kpt #:    23
     total cpu time spent up to now is      124.1 secs

     Computing kpt #:    24
     total cpu time spent up to now is      129.0 secs

     Computing kpt #:    25
     total cpu time spent up to now is      133.4 secs

     Computing kpt #:    26
     total cpu time spent up to now is      137.8 secs

     Computing kpt #:    27
     total cpu time spent up to now is      142.1 secs

     Computing kpt #:    28
     total cpu time spent up to now is      146.4 secs

     Computing kpt #:    29
     total cpu time spent up to now is      151.5 secs

     Computing kpt #:    30
     total cpu time spent up to now is      154.7 secs

     Computing kpt #:    31
     total cpu time spent up to now is      158.5 secs

     Computing kpt #:    32
     total cpu time spent up to now is      161.8 secs

     Computing kpt #:    33
     total cpu time spent up to now is      165.3 secs

     Computing kpt #:    34
     total cpu time spent up to now is      168.7 secs

     Computing kpt #:    35
     total cpu time spent up to now is      173.3 secs

     Computing kpt #:    36
     total cpu time spent up to now is      177.9 secs

     Computing kpt #:    37
     total cpu time spent up to now is      182.7 secs

     Computing kpt #:    38
     total cpu time spent up to now is      187.2 secs

     Computing kpt #:    39
     total cpu time spent up to now is      192.1 secs

     Computing kpt #:    40
     total cpu time spent up to now is      196.8 secs

     Computing kpt #:    41
     total cpu time spent up to now is      201.3 secs

     Computing kpt #:    42
     total cpu time spent up to now is      205.9 secs

     Computing kpt #:    43
     total cpu time spent up to now is      210.9 secs

     Computing kpt #:    44
     total cpu time spent up to now is      215.4 secs

     Computing kpt #:    45
     total cpu time spent up to now is      221.1 secs

     Computing kpt #:    46
     total cpu time spent up to now is      225.7 secs

     Computing kpt #:    47
     total cpu time spent up to now is      231.2 secs

     Computing kpt #:    48
     total cpu time spent up to now is      235.0 secs

     Computing kpt #:    49
     total cpu time spent up to now is      238.5 secs

     Computing kpt #:    50
     total cpu time spent up to now is      242.6 secs

     Computing kpt #:    51
     total cpu time spent up to now is      246.6 secs

     Computing kpt #:    52
     total cpu time spent up to now is      252.2 secs

     Computing kpt #:    53
     total cpu time spent up to now is      256.4 secs

     Computing kpt #:    54
     total cpu time spent up to now is      260.0 secs

     Computing kpt #:    55
     total cpu time spent up to now is      263.8 secs

     Computing kpt #:    56
     total cpu time spent up to now is      267.6 secs

     Computing kpt #:    57
     total cpu time spent up to now is      271.3 secs

     Computing kpt #:    58
     total cpu time spent up to now is      276.2 secs

     Computing kpt #:    59
     total cpu time spent up to now is      281.2 secs

     Computing kpt #:    60
     total cpu time spent up to now is      285.5 secs

     Computing kpt #:    61
     total cpu time spent up to now is      290.4 secs

     Computing kpt #:    62
     total cpu time spent up to now is      296.4 secs

     Computing kpt #:    63
     total cpu time spent up to now is      301.1 secs

     Computing kpt #:    64
     total cpu time spent up to now is      306.5 secs

     Computing kpt #:    65
     total cpu time spent up to now is      310.6 secs

     Computing kpt #:    66
     total cpu time spent up to now is      314.3 secs

     Computing kpt #:    67
     total cpu time spent up to now is      317.8 secs

     Computing kpt #:    68
     total cpu time spent up to now is      321.7 secs

     Computing kpt #:    69
     total cpu time spent up to now is      325.2 secs

     Computing kpt #:    70
     total cpu time spent up to now is      329.1 secs

     Computing kpt #:    71
     total cpu time spent up to now is      332.9 secs

     Computing kpt #:    72
     total cpu time spent up to now is      337.6 secs

     Computing kpt #:    73
     total cpu time spent up to now is      342.4 secs

     Computing kpt #:    74
     total cpu time spent up to now is      346.9 secs

     Computing kpt #:    75
     total cpu time spent up to now is      351.7 secs

     Computing kpt #:    76
     total cpu time spent up to now is      356.5 secs

     Computing kpt #:    77
     total cpu time spent up to now is      361.2 secs

     Computing kpt #:    78
     total cpu time spent up to now is      365.7 secs

     Computing kpt #:    79
     total cpu time spent up to now is      370.3 secs

     Computing kpt #:    80
     total cpu time spent up to now is      375.1 secs

     Computing kpt #:    81
     total cpu time spent up to now is      379.7 secs

     Computing kpt #:    82
     total cpu time spent up to now is      384.8 secs

     Computing kpt #:    83
     total cpu time spent up to now is      389.7 secs

     Computing kpt #:    84
     total cpu time spent up to now is      395.5 secs

     Computing kpt #:    85
     total cpu time spent up to now is      401.7 secs

     Computing kpt #:    86
     total cpu time spent up to now is      406.1 secs

     Computing kpt #:    87
     total cpu time spent up to now is      412.2 secs

     Computing kpt #:    88
     total cpu time spent up to now is      416.4 secs

     Computing kpt #:    89
     total cpu time spent up to now is      420.4 secs

     Computing kpt #:    90
     total cpu time spent up to now is      424.4 secs

     Computing kpt #:    91
     total cpu time spent up to now is      429.9 secs

     ethr =  2.50E-12,  avg # of iterations = 40.5

     total cpu time spent up to now is      429.9 secs

     End of band structure calculation

          k = 0.0000 0.0000 0.0000 ( 11549 PWs)   bands (ev):

   -13.8610 -10.5957  -8.9640  -8.9597  -5.8734  -5.5336  -5.5309  -3.4465
    -2.0669  -2.0636  -1.1914   0.8866

          k = 0.0000 0.0192 0.0000 ( 11543 PWs)   bands (ev):

   -13.8601 -10.6019  -8.9621  -8.9559  -5.8724  -5.5324  -5.5296  -3.4503
    -2.0657  -2.0623  -1.1887   0.8888

          k = 0.0000 0.0385 0.0000 ( 11533 PWs)   bands (ev):

   -13.8572 -10.6204  -8.9639  -8.9376  -5.8694  -5.5327  -5.5220  -3.4615
    -2.0670  -2.0539  -1.1805   0.8954

          k = 0.0000 0.0577 0.0000 ( 11531 PWs)   bands (ev):

   -13.8523 -10.6502  -8.9676  -8.9075  -5.8645  -5.5336  -5.5087  -3.4798
    -2.0699  -2.0395  -1.1670   0.9056

          k = 0.0000 0.0770 0.0000 ( 11541 PWs)   bands (ev):

   -13.8456 -10.6901  -8.9728  -8.8672  -5.8580  -5.5346  -5.4901  -3.5045
    -2.0741  -2.0200  -1.1484   0.9185

          k = 0.0000 0.0962 0.0000 ( 11549 PWs)   bands (ev):

   -13.8370 -10.7384  -8.9793  -8.8183  -5.8502  -5.5353  -5.4663  -3.5350
    -2.0793  -1.9963  -1.1247   0.9319

          k = 0.0000 0.1155 0.0000 ( 11561 PWs)   bands (ev):

   -13.8265 -10.7938  -8.9870  -8.7624  -5.8414  -5.5350  -5.4377  -3.5703
    -2.0855  -1.9690  -1.0964   0.9417

          k = 0.0000 0.1347 0.0000 ( 11571 PWs)   bands (ev):

   -13.8141 -10.8548  -8.9959  -8.7010  -5.8323  -5.5331  -5.4043  -3.6098
    -2.0925  -1.9389  -1.0638   0.9404

          k = 0.0000 0.1540 0.0000 ( 11577 PWs)   bands (ev):

   -13.8000 -10.9201  -9.0057  -8.6355  -5.8235  -5.5288  -5.3664  -3.6525
    -2.1003  -1.9069  -1.0275   0.9178

          k = 0.0000 0.1732 0.0000 ( 11567 PWs)   bands (ev):

   -13.7841 -10.9887  -9.0164  -8.5671  -5.8156  -5.5215  -5.3243  -3.6976
    -2.1086  -1.8736  -0.9882   0.8681

          k = 0.0000 0.1925 0.0000 ( 11573 PWs)   bands (ev):

   -13.7664 -11.0597  -9.0277  -8.4967  -5.8094  -5.5104  -5.2782  -3.7444
    -2.1174  -1.8396  -0.9469   0.7942

          k = 0.0000 0.2117 0.0000 ( 11569 PWs)   bands (ev):

   -13.7472 -11.1322  -9.0396  -8.4254  -5.8051  -5.4950  -5.2284  -3.7920
    -2.1265  -1.8056  -0.9048   0.7033

          k = 0.0000 0.2309 0.0000 ( 11589 PWs)   bands (ev):

   -13.7263 -11.2056  -9.0519  -8.3539  -5.8029  -5.4755  -5.1754  -3.8398
    -2.1358  -1.7720  -0.8638   0.6027

          k = 0.0000 0.2502 0.0000 ( 11589 PWs)   bands (ev):

   -13.7040 -11.2793  -9.0645  -8.2830  -5.8026  -5.4519  -5.1194  -3.8870
    -2.1450  -1.7393  -0.8260   0.4989

          k = 0.0000 0.2694 0.0000 ( 11603 PWs)   bands (ev):

   -13.6803 -11.3529  -9.0771  -8.2131  -5.8038  -5.4250  -5.0610  -3.9327
    -2.1541  -1.7079  -0.7947   0.3822

          k = 0.0000 0.2887 0.0000 ( 11619 PWs)   bands (ev):

   -13.6553 -11.4258  -9.0897  -8.1450  -5.8062  -5.3956  -5.0004  -3.9764
    -2.1628  -1.6784  -0.7738   0.2445

          k = 0.0000 0.3079 0.0000 ( 11631 PWs)   bands (ev):

   -13.6292 -11.4976  -9.1021  -8.0791  -5.8092  -5.3645  -4.9383  -4.0170
    -2.1710  -1.6511  -0.7677   0.1077

          k = 0.0000 0.3272 0.0000 ( 11619 PWs)   bands (ev):

   -13.6022 -11.5680  -9.1142  -8.0159  -5.8123  -5.3328  -4.8752  -4.0539
    -2.1785  -1.6265  -0.7799  -0.0268

          k = 0.0000 0.3464 0.0000 ( 11623 PWs)   bands (ev):

   -13.5745 -11.6364  -9.1259  -7.9558  -5.8153  -5.3016  -4.8116  -4.0861
    -2.1853  -1.6055  -0.8117  -0.1580

          k = 0.0000 0.3657 0.0000 ( 11617 PWs)   bands (ev):

   -13.5462 -11.7026  -9.1370  -7.8992  -5.8179  -5.2720  -4.7482  -4.1129
    -2.1911  -1.5889  -0.8602  -0.2851

          k = 0.0000 0.3849 0.0000 ( 11617 PWs)   bands (ev):

   -13.5178 -11.7661  -9.1475  -7.8464  -5.8199  -5.2450  -4.6858  -4.1337
    -2.1959  -1.5777  -0.9197  -0.4071

          k = 0.0000 0.4041 0.0000 ( 11605 PWs)   bands (ev):

   -13.4895 -11.8264  -9.1572  -7.7978  -5.8211  -5.2214  -4.6250  -4.1479
    -2.1996  -1.5734  -0.9831  -0.5229

          k = 0.0000 0.4234 0.0000 ( 11619 PWs)   bands (ev):

   -13.4618 -11.8830  -9.1662  -7.7535  -5.8215  -5.2021  -4.5668  -4.1555
    -2.2020  -1.5777  -1.0439  -0.6317

          k = 0.0000 0.4426 0.0000 ( 11625 PWs)   bands (ev):

   -13.4351 -11.9353  -9.1742  -7.7140  -5.8212  -5.1872  -4.5121  -4.1569
    -2.2033  -1.5918  -1.0965  -0.7322

          k = 0.0000 0.4619 0.0000 ( 11615 PWs)   bands (ev):

   -13.4100 -11.9827  -9.1814  -7.6793  -5.8203  -5.1765  -4.4618  -4.1530
    -2.2035  -1.6153  -1.1376  -0.8234

          k = 0.0000 0.4811 0.0000 ( 11621 PWs)   bands (ev):

   -13.3871 -12.0246  -9.1875  -7.6497  -5.8189  -5.1697  -4.4170  -4.1452
    -2.2027  -1.6459  -1.1669  -0.9039

          k = 0.0000 0.5004 0.0000 ( 11633 PWs)   bands (ev):

   -13.3670 -12.0603  -9.1925  -7.6253  -5.8173  -5.1659  -4.3786  -4.1352
    -2.2013  -1.6794  -1.1861  -0.9724

          k = 0.0000 0.5196 0.0000 ( 11627 PWs)   bands (ev):

   -13.3505 -12.0890  -9.1965  -7.6062  -5.8157  -5.1642  -4.3476  -4.1248
    -2.1995  -1.7111  -1.1978  -1.0275

          k = 0.0000 0.5389 0.0000 ( 11625 PWs)   bands (ev):

   -13.3382 -12.1100  -9.1994  -7.5925  -5.8143  -5.1637  -4.3248  -4.1158
    -2.1979  -1.7368  -1.2044  -1.0680

          k = 0.0000 0.5581 0.0000 ( 11628 PWs)   bands (ev):

   -13.3306 -12.1229  -9.2011  -7.5843  -5.8134  -5.1637  -4.3108  -4.1098
    -2.1967  -1.7534  -1.2078  -1.0928

          k = 0.0000 0.5774 0.0000 ( 11620 PWs)   bands (ev):

   -13.3280 -12.1273  -9.2017  -7.5815  -5.8131  -5.1638  -4.3061  -4.1076
    -2.1962  -1.7592  -1.2088  -1.1011

          k = 0.0111 0.5773 0.0000 ( 11626 PWs)   bands (ev):

   -13.3277 -12.1277  -9.2023  -7.5798  -5.8143  -5.1632  -4.3060  -4.1081
    -2.2000  -1.7550  -1.2087  -1.1000

          k = 0.0222 0.5773 0.0000 ( 11618 PWs)   bands (ev):

   -13.3269 -12.1289  -9.2043  -7.5746  -5.8179  -5.1614  -4.3055  -4.1096
    -2.2109  -1.7429  -1.2083  -1.0968

          k = 0.0333 0.5773 0.0000 ( 11618 PWs)   bands (ev):

   -13.3256 -12.1309  -9.2076  -7.5660  -5.8239  -5.1585  -4.3047  -4.1121
    -2.2278  -1.7240  -1.2076  -1.0916

          k = 0.0444 0.5773 0.0000 ( 11626 PWs)   bands (ev):

   -13.3237 -12.1337  -9.2121  -7.5541  -5.8323  -5.1544  -4.3036  -4.1156
    -2.2494  -1.6996  -1.2063  -1.0845

          k = 0.0555 0.5773 0.0000 ( 11622 PWs)   bands (ev):

   -13.3213 -12.1373  -9.2176  -7.5389  -5.8430  -5.1490  -4.3024  -4.1199
    -2.2745  -1.6710  -1.2043  -1.0758

          k = 0.0667 0.5773 0.0000 ( 11622 PWs)   bands (ev):

   -13.3184 -12.1416  -9.2242  -7.5207  -5.8559  -5.1425  -4.3011  -4.1251
    -2.3018  -1.6393  -1.2013  -1.0658

          k = 0.0778 0.5773 0.0000 ( 11634 PWs)   bands (ev):

   -13.3150 -12.1467  -9.2317  -7.4996  -5.8710  -5.1347  -4.3000  -4.1311
    -2.3307  -1.6053  -1.1973  -1.0545

          k = 0.0889 0.5773 0.0000 ( 11644 PWs)   bands (ev):

   -13.3112 -12.1524  -9.2399  -7.4757  -5.8883  -5.1257  -4.2991  -4.1377
    -2.3605  -1.5696  -1.1921  -1.0422

          k = 0.1000 0.5773 0.0000 ( 11624 PWs)   bands (ev):

   -13.3069 -12.1589  -9.2487  -7.4493  -5.9075  -5.1154  -4.2986  -4.1448
    -2.3906  -1.5328  -1.1855  -1.0289

          k = 0.1111 0.5773 0.0000 ( 11624 PWs)   bands (ev):

   -13.3021 -12.1659  -9.2580  -7.4205  -5.9287  -5.1038  -4.2988  -4.1523
    -2.4208  -1.4952  -1.1775  -1.0149

          k = 0.1222 0.5773 0.0000 ( 11604 PWs)   bands (ev):

   -13.2970 -12.1735  -9.2676  -7.3895  -5.9518  -5.0910  -4.2999  -4.1598
    -2.4507  -1.4573  -1.1680  -1.0001

          k = 0.1333 0.5773 0.0000 ( 11600 PWs)   bands (ev):

   -13.2915 -12.1817  -9.2774  -7.3565  -5.9766  -5.0769  -4.3023  -4.1672
    -2.4801  -1.4193  -1.1568  -0.9846

          k = 0.1444 0.5773 0.0000 ( 11592 PWs)   bands (ev):

   -13.2856 -12.1903  -9.2873  -7.3218  -6.0030  -5.0615  -4.3063  -4.1742
    -2.5088  -1.3817  -1.1439  -0.9684

          k = 0.1555 0.5773 0.0000 ( 11592 PWs)   bands (ev):

   -13.2794 -12.1994  -9.2971  -7.2854  -6.0310  -5.0450  -4.3121  -4.1805
    -2.5367  -1.3449  -1.1291  -0.9516

          k = 0.1666 0.5773 0.0000 ( 11608 PWs)   bands (ev):

   -13.2730 -12.2087  -9.3068  -7.2476  -6.0604  -5.0272  -4.3199  -4.1859
    -2.5635  -1.3093  -1.1122  -0.9340

          k = 0.1778 0.5773 0.0000 ( 11600 PWs)   bands (ev):

   -13.2664 -12.2184  -9.3162  -7.2086  -6.0911  -5.0083  -4.3298  -4.1904
    -2.5892  -1.2754  -1.0930  -0.9156

          k = 0.1889 0.5773 0.0000 ( 11620 PWs)   bands (ev):

   -13.2597 -12.2282  -9.3252  -7.1685  -6.1230  -4.9882  -4.3418  -4.1940
    -2.6136  -1.2438  -1.0712  -0.8963

          k = 0.2000 0.5773 0.0000 ( 11614 PWs)   bands (ev):

   -13.2529 -12.2380  -9.3338  -7.1276  -6.1561  -4.9672  -4.3556  -4.1969
    -2.6366  -1.2149  -1.0468  -0.8759

          k = 0.2111 0.5773 0.0000 ( 11614 PWs)   bands (ev):

   -13.2460 -12.2479  -9.3419  -7.0858  -6.1902  -4.9451  -4.3711  -4.1992
    -2.6582  -1.1890  -1.0198  -0.8543

          k = 0.2222 0.5773 0.0000 ( 11608 PWs)   bands (ev):

   -13.2392 -12.2576  -9.3495  -7.0435  -6.2253  -4.9222  -4.3880  -4.2010
    -2.6782  -1.1661  -0.9907  -0.8314

          k = 0.2333 0.5773 0.0000 ( 11602 PWs)   bands (ev):

   -13.2326 -12.2670  -9.3564  -7.0008  -6.2613  -4.8986  -4.4060  -4.2026
    -2.6967  -1.1461  -0.9599  -0.8071

          k = 0.2444 0.5773 0.0000 ( 11598 PWs)   bands (ev):

   -13.2263 -12.2760  -9.3627  -6.9577  -6.2980  -4.8745  -4.4250  -4.2040
    -2.7134  -1.1287  -0.9280  -0.7814

          k = 0.2555 0.5773 0.0000 ( 11608 PWs)   bands (ev):

   -13.2202 -12.2846  -9.3683  -6.9145  -6.3354  -4.8500  -4.4446  -4.2053
    -2.7283  -1.1137  -0.8956  -0.7544

          k = 0.2666 0.5773 0.0000 ( 11588 PWs)   bands (ev):

   -13.2147 -12.2924  -9.3732  -6.8713  -6.3735  -4.8256  -4.4645  -4.2065
    -2.7415  -1.1009  -0.8631  -0.7266

          k = 0.2777 0.5773 0.0000 ( 11584 PWs)   bands (ev):

   -13.2097 -12.2994  -9.3773  -6.8282  -6.4121  -4.8016  -4.4843  -4.2076
    -2.7527  -1.0902  -0.8306  -0.6987

          k = 0.2889 0.5773 0.0000 ( 11578 PWs)   bands (ev):

   -13.2053 -12.3055  -9.3807  -6.7854  -6.4511  -4.7787  -4.5035  -4.2087
    -2.7621  -1.0814  -0.7985  -0.6723

          k = 0.3000 0.5773 0.0000 ( 11578 PWs)   bands (ev):

   -13.2018 -12.3105  -9.3834  -6.7431  -6.4904  -4.7578  -4.5212  -4.2097
    -2.7694  -1.0745  -0.7667  -0.6500

          k = 0.3111 0.5773 0.0000 ( 11594 PWs)   bands (ev):

   -13.1991 -12.3142  -9.3853  -6.7018  -6.5295  -4.7404  -4.5361  -4.2104
    -2.7747  -1.0695  -0.7354  -0.6361

          k = 0.3222 0.5773 0.0000 ( 11586 PWs)   bands (ev):

   -13.1975 -12.3165  -9.3865  -6.6631  -6.5667  -4.7285  -4.5464  -4.2109
    -2.7779  -1.0664  -0.7057  -0.6359

          k = 0.3333 0.5773 0.0000 ( 11598 PWs)   bands (ev):

   -13.1969 -12.3172  -9.3869  -6.6403  -6.5891  -4.7243  -4.5500  -4.2111
    -2.7791  -1.0654  -0.6863  -0.6455

          k = 0.3222 0.5580 0.0000 ( 11588 PWs)   bands (ev):

   -13.1993 -12.3140  -9.3853  -6.7010  -6.5304  -4.7401  -4.5370  -4.2103
    -2.7745  -1.0702  -0.7609  -0.5967

          k = 0.3111 0.5388 0.0000 ( 11574 PWs)   bands (ev):

   -13.2068 -12.3034  -9.3808  -6.7834  -6.4539  -4.7777  -4.5087  -4.2076
    -2.7609  -1.0882  -0.8665  -0.5341

          k = 0.3000 0.5196 0.0000 ( 11596 PWs)   bands (ev):

   -13.2196 -12.2850  -9.3737  -6.8680  -6.3795  -4.8249  -4.4787  -4.2033
    -2.7379  -1.1298  -0.9550  -0.4714

          k = 0.2889 0.5003 0.0000 ( 11586 PWs)   bands (ev):

   -13.2375 -12.2589  -9.3640  -6.9535  -6.3087  -4.8761  -4.4526  -4.1988
    -2.7054  -1.2011  -1.0091  -0.4103

          k = 0.2777 0.4811 0.0000 ( 11582 PWs)   bands (ev):

   -13.2600 -12.2252  -9.3521  -7.0398  -6.2419  -4.9290  -4.4319  -4.1966
    -2.6638  -1.2844  -1.0408  -0.3523

          k = 0.2666 0.4618 0.0000 ( 11574 PWs)   bands (ev):

   -13.2865 -12.1845  -9.3380  -7.1265  -6.1794  -4.9823  -4.4163  -4.1992
    -2.6144  -1.3612  -1.0640  -0.2992

          k = 0.2555 0.4426 0.0000 ( 11586 PWs)   bands (ev):

   -13.3161 -12.1373  -9.3221  -7.2137  -6.1216  -5.0355  -4.4059  -4.2076
    -2.5592  -1.4235  -1.0830  -0.2531

          k = 0.2444 0.4233 0.0000 ( 11574 PWs)   bands (ev):

   -13.3482 -12.0842  -9.3045  -7.3012  -6.0684  -5.0878  -4.4024  -4.2202
    -2.5013  -1.4680  -1.0976  -0.2161

          k = 0.2333 0.4041 0.0000 ( 11570 PWs)   bands (ev):

   -13.3820 -12.0259  -9.2856  -7.3891  -6.0200  -5.1391  -4.4112  -4.2306
    -2.4446  -1.4948  -1.1050  -0.1901

          k = 0.2222 0.3849 0.0000 ( 11584 PWs)   bands (ev):

   -13.4169 -11.9628  -9.2655  -7.4774  -5.9764  -5.1888  -4.4386  -4.2309
    -2.3924  -1.5074  -1.1004  -0.1762

          k = 0.2111 0.3656 0.0000 ( 11572 PWs)   bands (ev):

   -13.4524 -11.8955  -9.2446  -7.5660  -5.9376  -5.2366  -4.4855  -4.2182
    -2.3471  -1.5131  -1.0778  -0.1736

          k = 0.2000 0.3464 0.0000 ( 11586 PWs)   bands (ev):

   -13.4879 -11.8244  -9.2230  -7.6549  -5.9036  -5.2823  -4.5476  -4.1945
    -2.3092  -1.5200  -1.0331  -0.1797

          k = 0.1889 0.3271 0.0000 ( 11586 PWs)   bands (ev):

   -13.5231 -11.7500  -9.2011  -7.7443  -5.8741  -5.3255  -4.6198  -4.1627
    -2.2779  -1.5338  -0.9684  -0.1886

          k = 0.1778 0.3079 0.0000 ( 11592 PWs)   bands (ev):

   -13.5576 -11.6727  -9.1790  -7.8340  -5.8492  -5.3657  -4.6984  -4.1246
    -2.2516  -1.5555  -0.8941  -0.1904

          k = 0.1666 0.2886 0.0000 ( 11586 PWs)   bands (ev):

   -13.5911 -11.5929  -9.1569  -7.9240  -5.8288  -5.4026  -4.7803  -4.0814
    -2.2289  -1.5840  -0.8273  -0.1706

          k = 0.1555 0.2694 0.0000 ( 11600 PWs)   bands (ev):

   -13.6234 -11.5110  -9.1352  -8.0143  -5.8128  -5.4357  -4.8635  -4.0341
    -2.2086  -1.6176  -0.7863  -0.1138

          k = 0.1444 0.2502 0.0000 ( 11586 PWs)   bands (ev):

   -13.6541 -11.4275  -9.1140  -8.1046  -5.8015  -5.4646  -4.9459  -3.9834
    -2.1900  -1.6548  -0.7789  -0.0144

          k = 0.1333 0.2309 0.0000 ( 11598 PWs)   bands (ev):

   -13.6832 -11.3429  -9.0935  -8.1948  -5.7947  -5.4887  -5.0260  -3.9302
    -2.1727  -1.6944  -0.7990   0.1194

          k = 0.1222 0.2117 0.0000 ( 11594 PWs)   bands (ev):

   -13.7105 -11.2576  -9.0739  -8.2846  -5.7927  -5.5076  -5.1026  -3.8752
    -2.1565  -1.7357  -0.8359   0.2748

          k = 0.1111 0.1924 0.0000 ( 11572 PWs)   bands (ev):

   -13.7358 -11.1725  -9.0555  -8.3734  -5.7950  -5.5215  -5.1747  -3.8194
    -2.1413  -1.7778  -0.8813   0.4403

          k = 0.1000 0.1732 0.0000 ( 11566 PWs)   bands (ev):

   -13.7590 -11.0881  -9.0383  -8.4608  -5.8011  -5.5307  -5.2413  -3.7637
    -2.1273  -1.8200  -0.9299   0.6057

          k = 0.0889 0.1539 0.0000 ( 11564 PWs)   bands (ev):

   -13.7800 -11.0055  -9.0225  -8.5458  -5.8100  -5.5359  -5.3019  -3.7090
    -2.1144  -1.8618  -0.9783   0.7579

          k = 0.0778 0.1347 0.0000 ( 11558 PWs)   bands (ev):

   -13.7987 -10.9258  -9.0082  -8.6276  -5.8206  -5.5381  -5.3559  -3.6564
    -2.1028  -1.9022  -1.0243   0.8753

          k = 0.0667 0.1155 0.0000 ( 11555 PWs)   bands (ev):

   -13.8150 -10.8504  -8.9956  -8.7047  -5.8320  -5.5383  -5.4031  -3.6070
    -2.0926  -1.9404  -1.0663   0.9320

          k = 0.0555 0.0962 0.0000 ( 11559 PWs)   bands (ev):

   -13.8290 -10.7808  -8.9848  -8.7757  -5.8431  -5.5372  -5.4430  -3.5620
    -2.0839  -1.9754  -1.1032   0.9388

          k = 0.0444 0.0770 0.0000 ( 11535 PWs)   bands (ev):

   -13.8405 -10.7192  -8.9759  -8.8385  -5.8532  -5.5355  -5.4757  -3.5228
    -2.0766  -2.0062  -1.1343   0.9268

          k = 0.0333 0.0577 0.0000 ( 11525 PWs)   bands (ev):

   -13.8494 -10.6676  -8.9688  -8.8909  -5.8617  -5.5337  -5.5011  -3.4905
    -2.0709  -2.0318  -1.1590   0.9114

          k = 0.0222 0.0385 0.0000 ( 11545 PWs)   bands (ev):

   -13.8559 -10.6285  -8.9637  -8.9306  -5.8681  -5.5322  -5.5192  -3.4665
    -2.0668  -2.0509  -1.1769   0.8982

          k = 0.0111 0.0192 0.0000 ( 11545 PWs)   bands (ev):

   -13.8597 -10.6040  -8.9607  -8.9555  -5.8721  -5.5312  -5.5300  -3.4516
    -2.0644  -2.0628  -1.1878   0.8896

          k = 0.0000 0.0000 0.0000 ( 11549 PWs)   bands (ev):

   -13.8610 -10.5957  -8.9640  -8.9597  -5.8734  -5.5336  -5.5309  -3.4465
    -2.0669  -2.0636  -1.1914   0.8866

     Writing output data file aiida.save/

     init_run     :      1.14s CPU      1.25s WALL (       1 calls)
     electrons    :    532.24s CPU    428.41s WALL (       1 calls)

     Called by init_run:
     wfcinit      :      0.00s CPU      0.00s WALL (       1 calls)
     wfcinit:atom :      0.51s CPU      0.54s WALL (      91 calls)
     wfcinit:wfcr :     20.27s CPU     19.30s WALL (      91 calls)
     potinit      :      0.38s CPU      0.43s WALL (       1 calls)
     hinit0       :      0.64s CPU      0.68s WALL (       1 calls)

     Called by electrons:
     c_bands      :    532.24s CPU    428.41s WALL (       1 calls)
     v_of_rho     :      0.32s CPU      0.35s WALL (       1 calls)
     v_h          :      0.03s CPU      0.03s WALL (       1 calls)
     v_xc         :      0.29s CPU      0.32s WALL (       1 calls)

     Called by c_bands:
     init_us_2    :      0.97s CPU      1.14s WALL (      91 calls)
     cegterg      :    497.52s CPU    396.01s WALL (     226 calls)

     Called by sum_band:

     Called by *egterg:
     h_psi        :    441.02s CPU    351.56s WALL (    3998 calls)
     g_psi        :      4.24s CPU      2.51s WALL (    3681 calls)
     cdiaghg      :      5.64s CPU      5.03s WALL (    3772 calls)
     cegterg:over :     28.12s CPU     25.14s WALL (    3681 calls)
     cegterg:upda :     21.21s CPU     16.27s WALL (    3681 calls)
     cegterg:last :     10.91s CPU      6.37s WALL (     702 calls)

     Called by h_psi:
     h_psi:pot    :    439.76s CPU    350.69s WALL (    3998 calls)
     h_psi:calbec :     39.93s CPU     38.56s WALL (    3998 calls)
     vloc_psi     :    365.13s CPU    288.97s WALL (    3998 calls)
     add_vuspsi   :     34.65s CPU     23.14s WALL (    3998 calls)

     General routines
     calbec       :     39.90s CPU     38.55s WALL (    3998 calls)
     fft          :      0.23s CPU      0.24s WALL (      12 calls)
     ffts         :      0.01s CPU      0.01s WALL (       1 calls)
     fftw         :    325.79s CPU    257.72s WALL (   50110 calls)
     interpolate  :      0.03s CPU      0.03s WALL (       1 calls)
     davcio       :      0.19s CPU      0.27s WALL (     182 calls)

     Parallel routines

     PWSCF        :   8m53.75s CPU   7m10.39s WALL


   This run was terminated on:  20:40:23   8Jan2025            

=------------------------------------------------------------------------------=
   JOB DONE.
=------------------------------------------------------------------------------=
