
     Program PWSCF v.6.4.1 starts on  8Jan2025 at 20:27:22 

     This program is part of the open-source Quantum ESPRESSO suite
     for quantum simulation of materials; please cite
         "P. Giannozzi et al., J. Phys.:Condens. Matter 21 395502 (2009);
         "P. Giannozzi et al., J. Phys.:Condens. Matter 29 465901 (2017);
          URL http://www.quantum-espresso.org", 
     in publications or presentations arising from this work. More details at
     http://www.quantum-espresso.org/quote

     Parallel version (MPI), running on     1 processors

     MPI processes distributed on     1 nodes
     Waiting for input...
     Reading input from standard input

     Current dimensions of program PWSCF are:
     Max number of different atomic species (ntypx) = 10
     Max number of k-points (npk) =  40000
     Max angular momentum in pseudopotentials (lmaxx) =  3

     Subspace diagonalization in iterative solution of the eigenvalue problem:
     a serial algorithm will be used

     Message from routine setup:
     DEPRECATED: symmetry with ibrav=0, use correct ibrav instead

     G-vector sticks info
     --------------------
     sticks:   dense  smooth     PW     G-vecs:    dense   smooth      PW
     Sum        2107    1057    301               262273    92687   14039



     bravais-lattice index     =            0
     lattice parameter (alat)  =      11.2987  a.u.
     unit-cell volume          =    4178.4920 (a.u.)^3
     number of atoms/cell      =            4
     number of atomic types    =            1
     number of electrons       =        16.00
     number of Kohn-Sham states=           12
     kinetic-energy cutoff     =      30.0000  Ry
     charge density cutoff     =     240.0000  Ry
     convergence threshold     =      8.0E-10
     mixing beta               =       0.4000
     number of iterations used =            8  plain     mixing
     Exchange-correlation      = PBE ( 1  4  3  4 0 0)

     celldm(1)=  11.298741  celldm(2)=   0.000000  celldm(3)=   0.000000
     celldm(4)=   0.000000  celldm(5)=   0.000000  celldm(6)=   0.000000

     crystal axes: (cart. coord. in units of alat)
               a(1) = (   1.000000   0.000000   0.000000 )  
               a(2) = (  -0.500000   0.866025   0.000000 )  
               a(3) = (   0.000000   0.000000   3.345021 )  

     reciprocal axes: (cart. coord. in units 2 pi/alat)
               b(1) = (  1.000000  0.577350 -0.000000 )  
               b(2) = (  0.000000  1.154701  0.000000 )  
               b(3) = (  0.000000 -0.000000  0.298952 )  


     PseudoPot. # 1 for Si read from file:
     ../../pseudo/Si.pbe.upf
     MD5 check sum: 3f156eda2279325da2083dedf8f436a5
     Pseudo is Norm-conserving + core correction, Zval =  4.0
     Generated using ONCVPSP code by D. R. Hamann
     Using radial grid of 1510 points,  6 beta functions with: 
                l(1) =   0
                l(2) =   0
                l(3) =   1
                l(4) =   1
                l(5) =   2
                l(6) =   2

     atomic species   valence    mass     pseudopotential
        Si             4.00    28.08550     Si( 1.00)

      2 Sym. Ops. (no inversion) found


                                    s                        frac. trans.

      isym =  1     identity                                     

 cryst.   s( 1) = (     1          0          0      )
                  (     0          1          0      )
                  (     0          0          1      )

 cart.    s( 1) = (  1.0000000  0.0000000  0.0000000 )
                  (  0.0000000  1.0000000  0.0000000 )
                  (  0.0000000  0.0000000  1.0000000 )


      isym =  2     inv. 180 deg rotation - cryst. axis [1,1,0]  

 cryst.   s( 2) = (     0         -1          0      )
                  (    -1          0          0      )
                  (     0          0          1      )

 cart.    s( 2) = (  0.5000000 -0.8660254  0.0000000 )
                  ( -0.8660254 -0.5000000  0.0000000 )
                  (  0.0000000  0.0000000  1.0000000 )


   Cartesian axes

     site n.     atom                  positions (alat units)
         1           Si  tau(   1) = (   0.2500000   0.4330127   1.6725104  )
         2           Si  tau(   2) = (   0.4420000   0.1004589   1.6725104  )
         3           Si  tau(   3) = (   0.6340000   0.4330127   1.6725104  )
         4           Si  tau(   4) = (  -0.0582500   0.6109809   1.8464515  )

   Crystallographic axes

     site n.     atom                  positions (cryst. coord.)
         1           Si  tau(   1) = (  0.5000000  0.5000000  0.5000000  )
         2           Si  tau(   2) = (  0.5000000  0.1160000  0.5000000  )
         3           Si  tau(   3) = (  0.8840000  0.5000000  0.5000000  )
         4           Si  tau(   4) = (  0.2945000  0.7055000  0.5520000  )

     number of k points=    21  Marzari-Vanderbilt smearing, width (Ry)=  0.0200
                       cart. coord. in units 2pi/alat
        k(    1) = (   0.0000000   0.0000000   0.0000000), wk =   0.0312500
        k(    2) = (   0.0000000   0.1443376   0.0000000), wk =   0.1250000
        k(    3) = (   0.0000000   0.2886751   0.0000000), wk =   0.1250000
        k(    4) = (   0.0000000   0.4330127   0.0000000), wk =   0.1250000
        k(    5) = (   0.0000000  -0.5773503   0.0000000), wk =   0.0625000
        k(    6) = (   0.1250000   0.2165064   0.0000000), wk =   0.0625000
        k(    7) = (   0.1250000   0.3608439   0.0000000), wk =   0.1250000
        k(    8) = (   0.1250000   0.5051815   0.0000000), wk =   0.1250000
        k(    9) = (   0.2500000   0.4330127   0.0000000), wk =   0.0625000
        k(   10) = (   0.2500000   0.5773503   0.0000000), wk =   0.1250000
        k(   11) = (  -0.1250000   0.0721688   0.0000000), wk =   0.0625000
        k(   12) = (  -0.2500000   0.1443376   0.0000000), wk =   0.0625000
        k(   13) = (  -0.3750000   0.2165064   0.0000000), wk =   0.0625000
        k(   14) = (   0.5000000  -0.2886751   0.0000000), wk =   0.0312500
        k(   15) = (  -0.1250000   0.2165064   0.0000000), wk =   0.1250000
        k(   16) = (  -0.1250000   0.3608439   0.0000000), wk =   0.1250000
        k(   17) = (  -0.2500000   0.2886751   0.0000000), wk =   0.1250000
        k(   18) = (  -0.1250000   0.5051815   0.0000000), wk =   0.1250000
        k(   19) = (  -0.3750000   0.3608439   0.0000000), wk =   0.1250000
        k(   20) = (  -0.2500000   0.4330127   0.0000000), wk =   0.1250000
        k(   21) = (  -0.3750000   0.5051815   0.0000000), wk =   0.0625000

                       cryst. coord.
        k(    1) = (   0.0000000   0.0000000   0.0000000), wk =   0.0312500
        k(    2) = (   0.0000000   0.1250000   0.0000000), wk =   0.1250000
        k(    3) = (   0.0000000   0.2500000   0.0000000), wk =   0.1250000
        k(    4) = (   0.0000000   0.3750000   0.0000000), wk =   0.1250000
        k(    5) = (   0.0000000  -0.5000000   0.0000000), wk =   0.0625000
        k(    6) = (   0.1250000   0.1250000   0.0000000), wk =   0.0625000
        k(    7) = (   0.1250000   0.2500000   0.0000000), wk =   0.1250000
        k(    8) = (   0.1250000   0.3750000   0.0000000), wk =   0.1250000
        k(    9) = (   0.2500000   0.2500000   0.0000000), wk =   0.0625000
        k(   10) = (   0.2500000   0.3750000   0.0000000), wk =   0.1250000
        k(   11) = (  -0.1250000   0.1250000   0.0000000), wk =   0.0625000
        k(   12) = (  -0.2500000   0.2500000   0.0000000), wk =   0.0625000
        k(   13) = (  -0.3750000   0.3750000   0.0000000), wk =   0.0625000
        k(   14) = (   0.5000000  -0.5000000   0.0000000), wk =   0.0312500
        k(   15) = (  -0.1250000   0.2500000   0.0000000), wk =   0.1250000
        k(   16) = (  -0.1250000   0.3750000   0.0000000), wk =   0.1250000
        k(   17) = (  -0.2500000   0.3750000   0.0000000), wk =   0.1250000
        k(   18) = (  -0.1250000   0.5000000   0.0000000), wk =   0.1250000
        k(   19) = (  -0.3750000   0.5000000   0.0000000), wk =   0.1250000
        k(   20) = (  -0.2500000   0.5000000   0.0000000), wk =   0.1250000
        k(   21) = (  -0.3750000   0.6250000   0.0000000), wk =   0.0625000

     Dense  grid:   262273 G-vectors     FFT dimensions: (  60,  60, 192)

     Smooth grid:    92687 G-vectors     FFT dimensions: (  40,  40, 135)

     Dynamical RAM for                 wfc:       2.12 MB

     Dynamical RAM for     wfc (w. buffer):      46.70 MB

     Dynamical RAM for           str. fact:       4.00 MB

     Dynamical RAM for           local pot:       0.00 MB

     Dynamical RAM for          nlocal pot:      12.74 MB

     Dynamical RAM for                qrad:       2.23 MB

     Dynamical RAM for          rho,v,vnew:      27.83 MB

     Dynamical RAM for               rhoin:       9.28 MB

     Dynamical RAM for            rho*nmix:      64.03 MB

     Dynamical RAM for           G-vectors:      15.71 MB

     Dynamical RAM for          h,s,v(r/c):       0.11 MB

     Dynamical RAM for          <psi|beta>:       0.01 MB

     Dynamical RAM for                 psi:       8.49 MB

     Dynamical RAM for                hpsi:       8.49 MB

     Dynamical RAM for      wfcinit/wfcrot:       5.67 MB

     Estimated static dynamical RAM per process >     216.90 MB

     Estimated max dynamical RAM per process >     234.00 MB

     Initial potential from superposition of free atoms

     starting charge   15.99755, renormalised to   16.00000

     negative rho (up, down):  7.244E-05 0.000E+00
     Starting wfcs are   16 randomized atomic wfcs

     total cpu time spent up to now is        5.8 secs

     Self-consistent Calculation

     iteration #  1     ecut=    30.00 Ry     beta= 0.40
     Davidson diagonalization with overlap
     ethr =  1.00E-02,  avg # of iterations =  3.5

     negative rho (up, down):  1.202E-05 0.000E+00

     total cpu time spent up to now is       18.7 secs

     total energy              =     -33.55444167 Ry
     Harris-Foulkes estimate   =     -33.63401562 Ry
     estimated scf accuracy    <       0.20243763 Ry

     iteration #  2     ecut=    30.00 Ry     beta= 0.40
     Davidson diagonalization with overlap
     ethr =  1.27E-03,  avg # of iterations =  2.0

     negative rho (up, down):  1.130E-05 0.000E+00

     total cpu time spent up to now is       28.2 secs

     total energy              =     -33.56762853 Ry
     Harris-Foulkes estimate   =     -33.57649583 Ry
     estimated scf accuracy    <       0.02620869 Ry

     iteration #  3     ecut=    30.00 Ry     beta= 0.40
     Davidson diagonalization with overlap
     ethr =  1.64E-04,  avg # of iterations =  3.2

     negative rho (up, down):  1.382E-05 0.000E+00

     total cpu time spent up to now is       39.7 secs

     total energy              =     -33.57051045 Ry
     Harris-Foulkes estimate   =     -33.57125870 Ry
     estimated scf accuracy    <       0.00303607 Ry

     iteration #  4     ecut=    30.00 Ry     beta= 0.40
     Davidson diagonalization with overlap
     ethr =  1.90E-05,  avg # of iterations =  4.2

     negative rho (up, down):  9.097E-06 0.000E+00

     total cpu time spent up to now is       51.8 secs

     total energy              =     -33.57081806 Ry
     Harris-Foulkes estimate   =     -33.57105813 Ry
     estimated scf accuracy    <       0.00083187 Ry

     iteration #  5     ecut=    30.00 Ry     beta= 0.40
     Davidson diagonalization with overlap
     ethr =  5.20E-06,  avg # of iterations =  2.5

     negative rho (up, down):  9.676E-06 0.000E+00

     total cpu time spent up to now is       62.2 secs

     total energy              =     -33.57089727 Ry
     Harris-Foulkes estimate   =     -33.57093329 Ry
     estimated scf accuracy    <       0.00013475 Ry

     iteration #  6     ecut=    30.00 Ry     beta= 0.40
     Davidson diagonalization with overlap
     ethr =  8.42E-07,  avg # of iterations =  2.3

     negative rho (up, down):  5.939E-06 0.000E+00

     total cpu time spent up to now is       72.1 secs

     total energy              =     -33.57091259 Ry
     Harris-Foulkes estimate   =     -33.57092008 Ry
     estimated scf accuracy    <       0.00001537 Ry

     iteration #  7     ecut=    30.00 Ry     beta= 0.40
     Davidson diagonalization with overlap
     ethr =  9.60E-08,  avg # of iterations =  2.0

     negative rho (up, down):  3.565E-06 0.000E+00

     total cpu time spent up to now is       82.6 secs

     total energy              =     -33.57091637 Ry
     Harris-Foulkes estimate   =     -33.57091689 Ry
     estimated scf accuracy    <       0.00000137 Ry

     iteration #  8     ecut=    30.00 Ry     beta= 0.40
     Davidson diagonalization with overlap
     ethr =  8.58E-09,  avg # of iterations =  2.0

     negative rho (up, down):  2.072E-06 0.000E+00

     total cpu time spent up to now is       94.4 secs

     total energy              =     -33.57091669 Ry
     Harris-Foulkes estimate   =     -33.57091675 Ry
     estimated scf accuracy    <       0.00000022 Ry

     iteration #  9     ecut=    30.00 Ry     beta= 0.40
     Davidson diagonalization with overlap
     ethr =  1.40E-09,  avg # of iterations =  2.0

     negative rho (up, down):  1.142E-06 0.000E+00

     total cpu time spent up to now is      104.3 secs

     total energy              =     -33.57091674 Ry
     Harris-Foulkes estimate   =     -33.57091672 Ry
     estimated scf accuracy    <          7.1E-09 Ry

     iteration # 10     ecut=    30.00 Ry     beta= 0.40
     Davidson diagonalization with overlap
     ethr =  4.42E-11,  avg # of iterations =  2.9

     negative rho (up, down):  5.964E-07 0.000E+00

     total cpu time spent up to now is      116.1 secs

     total energy              =     -33.57091675 Ry
     Harris-Foulkes estimate   =     -33.57091674 Ry
     estimated scf accuracy    <          1.7E-09 Ry

     iteration # 11     ecut=    30.00 Ry     beta= 0.40
     Davidson diagonalization with overlap
     ethr =  1.06E-11,  avg # of iterations =  2.0

     total cpu time spent up to now is      126.4 secs

     End of self-consistent calculation

          k = 0.0000 0.0000 0.0000 ( 11549 PWs)   bands (ev):

   -13.8610 -10.5957  -8.9640  -8.9597  -5.8734  -5.5336  -5.5309  -3.4465
    -2.0668  -2.0636  -1.1914   0.8863

     occupation numbers 
     1.0000   1.0000   1.0000   1.0000   1.0000   1.0000   1.0000   0.5061
     0.0000   0.0000   0.0000   0.0000

          k = 0.0000 0.1443 0.0000 ( 11575 PWs)   bands (ev):

   -13.8073 -10.8870  -9.0007  -8.6687  -5.8278  -5.5313  -5.3859  -3.6308
    -2.0963  -1.9231  -1.0461   0.9325

     occupation numbers 
     1.0000   1.0000   1.0000   1.0000   1.0000   1.0000   1.0000   0.9595
     0.0000   0.0000   0.0000   0.0000

          k = 0.0000 0.2887 0.0000 ( 11619 PWs)   bands (ev):

   -13.6553 -11.4258  -9.0897  -8.1450  -5.8062  -5.3956  -5.0004  -3.9764
    -2.1628  -1.6784  -0.7738   0.2445

     occupation numbers 
     1.0000   1.0000   1.0000   1.0000   1.0000   1.0000   1.0000   1.0333
     0.0000   0.0000   0.0000   0.0000

          k = 0.0000 0.4330 0.0000 ( 11619 PWs)   bands (ev):

   -13.4483 -11.9097  -9.1703  -7.7332  -5.8215  -5.1941  -4.5389  -4.1570
    -2.2028  -1.5835  -1.0715  -0.6830

     occupation numbers 
     1.0000   1.0000   1.0000   1.0000   1.0000   1.0000   1.0000   1.0041
     0.0000   0.0000   0.0000   0.0000

          k = 0.0000-0.5774 0.0000 ( 11620 PWs)   bands (ev):

   -13.3280 -12.1272  -9.2017  -7.5815  -5.8131  -5.1638  -4.3062  -4.1076
    -2.1962  -1.7591  -1.2088  -1.1011

     occupation numbers 
     1.0000   1.0000   1.0000   1.0000   1.0000   1.0000   1.0003   1.0080
     0.0000   0.0000   0.0000   0.0000

          k = 0.1250 0.2165 0.0000 ( 11588 PWs)   bands (ev):

   -13.7038 -11.2791  -9.0788  -8.2621  -5.7927  -5.5034  -5.0838  -3.8891
    -2.1604  -1.7252  -0.8255   0.2344

     occupation numbers 
     1.0000   1.0000   1.0000   1.0000   1.0000   1.0000   1.0000   1.0621
     0.0000   0.0000   0.0000   0.0000

          k = 0.1250 0.3608 0.0000 ( 11576 PWs)   bands (ev):

   -13.5183 -11.7619  -9.1886  -7.7645  -5.8600  -5.3009  -4.6305  -4.1573
    -2.2593  -1.5426  -0.9680  -0.2307

     occupation numbers 
     1.0000   1.0000   1.0000   1.0000   1.0000   1.0000   1.0000   1.0041
     0.0000   0.0000   0.0000   0.0000

          k = 0.1250 0.5052 0.0000 ( 11601 PWs)   bands (ev):

   -13.3299 -12.1194  -9.2602  -7.4291  -5.9442  -5.1088  -4.3486  -4.1718
    -2.4144  -1.5117  -1.1527  -0.8179

     occupation numbers 
     1.0000   1.0000   1.0000   1.0000   1.0000   1.0000   1.0002   1.0033
     0.0000   0.0000   0.0000   0.0000

          k = 0.2500 0.4330 0.0000 ( 11578 PWs)   bands (ev):

   -13.3319 -12.1116  -9.3135  -7.2572  -6.0945  -5.0617  -4.4030  -4.2137
    -2.5305  -1.4479  -1.0909  -0.2334

     occupation numbers 
     1.0000   1.0000   1.0000   1.0000   1.0000   1.0000   1.0000   1.0017
     0.0000   0.0000   0.0000   0.0000

          k = 0.2500 0.5774 0.0000 ( 11606 PWs)   bands (ev):

   -13.2232 -12.2804  -9.3656  -6.9360  -6.3167  -4.8622  -4.4348  -4.2046
    -2.7211  -1.1209  -0.9118  -0.7680

     occupation numbers 
     1.0000   1.0000   1.0000   1.0000   1.0000   1.0000   1.0000   1.0020
     0.0000   0.0000   0.0000   0.0000

          k =-0.1250 0.0722 0.0000 ( 11575 PWs)   bands (ev):

   -13.8074 -10.8862  -9.0037  -8.6666  -5.8277  -5.5329  -5.3842  -3.6303
    -2.0985  -1.9215  -1.0461   0.9307

     occupation numbers 
     1.0000   1.0000   1.0000   1.0000   1.0000   1.0000   1.0000   0.9587
     0.0000   0.0000   0.0000   0.0000

          k =-0.2500 0.1443 0.0000 ( 11619 PWs)   bands (ev):

   -13.6557 -11.4240  -9.0925  -8.1447  -5.8055  -5.3962  -4.9995  -3.9753
    -2.1642  -1.6784  -0.7735   0.2479

     occupation numbers 
     1.0000   1.0000   1.0000   1.0000   1.0000   1.0000   1.0000   1.0336
     0.0000   0.0000   0.0000   0.0000

          k =-0.3750 0.2165 0.0000 ( 11619 PWs)   bands (ev):

   -13.4493 -11.9070  -9.1729  -7.7349  -5.8189  -5.1947  -4.5392  -4.1552
    -2.2028  -1.5856  -1.0705  -0.6801

     occupation numbers 
     1.0000   1.0000   1.0000   1.0000   1.0000   1.0000   1.0000   1.0042
     0.0000   0.0000   0.0000   0.0000

          k = 0.5000-0.2887 0.0000 ( 11620 PWs)   bands (ev):

   -13.3295 -12.1239  -9.2042  -7.5842  -5.8092  -5.1649  -4.3072  -4.1053
    -2.1949  -1.7617  -1.2083  -1.0987

     occupation numbers 
     1.0000   1.0000   1.0000   1.0000   1.0000   1.0000   1.0003   1.0082
     0.0000   0.0000   0.0000   0.0000

          k =-0.1250 0.2165 0.0000 ( 11588 PWs)   bands (ev):

   -13.7041 -11.2777  -9.0815  -8.2610  -5.7932  -5.5043  -5.0818  -3.8883
    -2.1626  -1.7241  -0.8254   0.2381

     occupation numbers 
     1.0000   1.0000   1.0000   1.0000   1.0000   1.0000   1.0000   1.0624
     0.0000   0.0000   0.0000   0.0000

          k =-0.1250 0.3608 0.0000 ( 11576 PWs)   bands (ev):

   -13.5186 -11.7608  -9.1901  -7.7642  -5.8609  -5.3009  -4.6291  -4.1567
    -2.2609  -1.5411  -0.9665  -0.2297

     occupation numbers 
     1.0000   1.0000   1.0000   1.0000   1.0000   1.0000   1.0000   1.0041
     0.0000   0.0000   0.0000   0.0000

          k =-0.2500 0.2887 0.0000 ( 11576 PWs)   bands (ev):

   -13.5190 -11.7597  -9.1913  -7.7650  -5.8595  -5.3014  -4.6291  -4.1560
    -2.2609  -1.5421  -0.9664  -0.2287

     occupation numbers 
     1.0000   1.0000   1.0000   1.0000   1.0000   1.0000   1.0000   1.0041
     0.0000   0.0000   0.0000   0.0000

          k =-0.1250 0.5052 0.0000 ( 11601 PWs)   bands (ev):

   -13.3302 -12.1189  -9.2607  -7.4291  -5.9447  -5.1085  -4.3497  -4.1702
    -2.4149  -1.5088  -1.1530  -0.8199

     occupation numbers 
     1.0000   1.0000   1.0000   1.0000   1.0000   1.0000   1.0001   1.0034
     0.0000   0.0000   0.0000   0.0000

          k =-0.3750 0.3608 0.0000 ( 11601 PWs)   bands (ev):

   -13.3313 -12.1165  -9.2625  -7.4314  -5.9415  -5.1098  -4.3487  -4.1697
    -2.4147  -1.5109  -1.1525  -0.8167

     occupation numbers 
     1.0000   1.0000   1.0000   1.0000   1.0000   1.0000   1.0002   1.0034
     0.0000   0.0000   0.0000   0.0000

          k =-0.2500 0.4330 0.0000 ( 11578 PWs)   bands (ev):

   -13.3326 -12.1099  -9.3149  -7.2580  -6.0941  -5.0621  -4.4029  -4.2120
    -2.5312  -1.4451  -1.0908  -0.2349

     occupation numbers 
     1.0000   1.0000   1.0000   1.0000   1.0000   1.0000   1.0000   1.0018
     0.0000   0.0000   0.0000   0.0000

          k =-0.3750 0.5052 0.0000 ( 11606 PWs)   bands (ev):

   -13.2240 -12.2790  -9.3664  -6.9384  -6.3143  -4.8635  -4.4332  -4.2045
    -2.7213  -1.1213  -0.9093  -0.7681

     occupation numbers 
     1.0000   1.0000   1.0000   1.0000   1.0000   1.0000   1.0000   1.0020
     0.0000   0.0000   0.0000   0.0000

     the Fermi energy is    -3.4064 ev

!    total energy              =     -33.57091675 Ry
     Harris-Foulkes estimate   =     -33.57091675 Ry
     estimated scf accuracy    <          8.6E-11 Ry

     The total energy is the sum of the following terms:

     one-electron contribution =    -137.41659571 Ry
     hartree contribution      =      70.28243618 Ry
     xc contribution           =     -11.87779436 Ry
     ewald contribution        =      45.43984217 Ry
     smearing contrib. (-TS)   =       0.00119497 Ry

     convergence has been achieved in  11 iterations

     Forces acting on atoms (cartesian axes, Ry/au):

     atom    1 type  1   force =     0.01251441   -0.00722520    0.00531850
     atom    2 type  1   force =    -0.00010227    0.01493710    0.00504007
     atom    3 type  1   force =    -0.01298704   -0.00737998    0.00504007
     atom    4 type  1   force =     0.00057489   -0.00033191   -0.01539865
     The non-local contrib.  to forces
     atom    1 type  1   force =    -0.04789481    0.02765208   -0.01458387
     atom    2 type  1   force =     0.00012196   -0.05458500   -0.01489334
     atom    3 type  1   force =     0.04733297    0.02718688   -0.01489334
     atom    4 type  1   force =     0.00060716   -0.00035054   -0.11666267
     The ionic contribution  to forces
     atom    1 type  1   force =    -0.76372612    0.44093748   -1.06623353
     atom    2 type  1   force =     0.00060248   -0.87883902   -1.06807028
     atom    3 type  1   force =     0.76139816    0.43889775   -1.06807028
     atom    4 type  1   force =     0.00172548   -0.00099621    3.20237408
     The local contribution  to forces
     atom    1 type  1   force =     0.81871901   -0.47268764    1.08427611
     atom    2 type  1   force =    -0.00081804    0.94216349    1.08611788
     atom    3 type  1   force =    -0.81634654   -0.47037330    1.08611788
     atom    4 type  1   force =    -0.00171140    0.00098808   -3.10486402
     The core correction contribution to forces
     atom    1 type  1   force =     0.00542099   -0.00312981    0.00186269
     atom    2 type  1   force =    -0.00000907    0.00620367    0.00188866
     atom    3 type  1   force =    -0.00537707   -0.00309398    0.00188866
     atom    4 type  1   force =    -0.00004561    0.00002633    0.00375751
     The Hubbard contrib.    to forces
     atom    1 type  1   force =     0.00000000    0.00000000    0.00000000
     atom    2 type  1   force =     0.00000000    0.00000000    0.00000000
     atom    3 type  1   force =     0.00000000    0.00000000    0.00000000
     atom    4 type  1   force =     0.00000000    0.00000000    0.00000000
     The SCF correction term to forces
     atom    1 type  1   force =    -0.00000466    0.00000269   -0.00000234
     atom    2 type  1   force =     0.00000040   -0.00000604   -0.00000228
     atom    3 type  1   force =     0.00000543    0.00000268   -0.00000228
     atom    4 type  1   force =    -0.00000075    0.00000043   -0.00000299

     Total force =     0.031172     Total SCF correction =     0.000011


     Computing stress (Cartesian axis) and pressure

          total   stress  (Ry/bohr**3)                   (kbar)     P=   -4.61
  -0.00004326   0.00000022   0.00000027         -6.36      0.03      0.04
   0.00000022  -0.00004301  -0.00000016          0.03     -6.33     -0.02
   0.00000027  -0.00000016  -0.00000770          0.04     -0.02     -1.13

     kinetic stress (kbar)    261.95     -0.01      0.01
                               -0.01    261.95     -0.01
                                0.01     -0.01    287.20

     local   stress (kbar)  -5024.90     -0.41     -0.12
                               -0.41  -5025.38      0.07
                               -0.12      0.07   4835.59

     nonloc. stress (kbar)    229.75      0.02      0.01
                                0.02    229.77     -0.01
                                0.01     -0.01    212.02

     hartree stress (kbar)   2352.96      0.10      0.02
                                0.10   2353.08     -0.01
                                0.02     -0.01  -2231.73

     exc-cor stress (kbar)    -16.32      0.00      0.00
                                0.00    -16.32     -0.00
                                0.00     -0.00    -18.82

     corecor stress (kbar)   -102.07     -0.00     -0.00
                               -0.00   -102.07      0.00
                               -0.00      0.00   -100.21

     ewald   stress (kbar)   2292.26      0.33      0.12
                                0.33   2292.64     -0.07
                                0.12     -0.07  -2985.17

     hubbard stress (kbar)      0.00      0.00      0.00
                                0.00      0.00      0.00
                                0.00      0.00      0.00

     london  stress (kbar)      0.00      0.00      0.00
                                0.00      0.00      0.00
                                0.00      0.00      0.00

     DFT-D3  stress (kbar)      0.00      0.00      0.00
                                0.00      0.00      0.00
                                0.00      0.00      0.00

     XDM     stress (kbar)      0.00      0.00      0.00
                                0.00      0.00      0.00
                                0.00      0.00      0.00

     dft-nl  stress (kbar)      0.00      0.00      0.00
                                0.00      0.00      0.00
                                0.00      0.00      0.00

     TS-vdW  stress (kbar)      0.00      0.00      0.00
                                0.00      0.00      0.00
                                0.00      0.00      0.00



     Writing output data file aiida.save/

     init_run     :      7.94s CPU      5.68s WALL (       1 calls)
     electrons    :    171.45s CPU    120.62s WALL (       1 calls)
     forces       :      3.22s CPU      2.57s WALL (       1 calls)
     stress       :     11.50s CPU      9.27s WALL (       1 calls)

     Called by init_run:
     wfcinit      :      6.55s CPU      4.22s WALL (       1 calls)
     wfcinit:atom :      0.09s CPU      0.06s WALL (      21 calls)
     wfcinit:wfcr :      5.90s CPU      3.79s WALL (      21 calls)
     potinit      :      0.66s CPU      0.69s WALL (       1 calls)
     hinit0       :      0.62s CPU      0.64s WALL (       1 calls)

     Called by electrons:
     c_bands      :    153.83s CPU    103.56s WALL (      11 calls)
     sum_band     :     13.23s CPU     12.73s WALL (      11 calls)
     v_of_rho     :      3.67s CPU      3.67s WALL (      12 calls)
     v_h          :      0.30s CPU      0.30s WALL (      12 calls)
     v_xc         :      3.95s CPU      3.98s WALL (      14 calls)
     mix_rho      :      0.68s CPU      0.63s WALL (      11 calls)

     Called by c_bands:
     init_us_2    :      4.76s CPU      3.45s WALL (     525 calls)
     cegterg      :    122.53s CPU     82.97s WALL (     231 calls)

     Called by sum_band:

     Called by *egterg:
     h_psi        :    114.29s CPU     78.95s WALL (     853 calls)
     g_psi        :      1.09s CPU      0.48s WALL (     601 calls)
     cdiaghg      :      0.95s CPU      0.55s WALL (     832 calls)
     cegterg:over :      4.77s CPU      2.72s WALL (     601 calls)
     cegterg:upda :      3.28s CPU      1.66s WALL (     601 calls)
     cegterg:last :      1.34s CPU      0.57s WALL (     231 calls)

     Called by h_psi:
     h_psi:pot    :    113.86s CPU     78.70s WALL (     853 calls)
     h_psi:calbec :     12.85s CPU      7.37s WALL (     853 calls)
     vloc_psi     :     90.61s CPU     66.77s WALL (     853 calls)
     add_vuspsi   :     10.39s CPU      4.56s WALL (     853 calls)

     General routines
     calbec       :     14.54s CPU      8.49s WALL (     958 calls)
     fft          :      2.97s CPU      2.91s WALL (     166 calls)
     ffts         :      0.11s CPU      0.11s WALL (      23 calls)
     fftw         :     88.55s CPU     67.90s WALL (   17504 calls)
     interpolate  :      0.30s CPU      0.30s WALL (      12 calls)

     Parallel routines

     PWSCF        :   3m14.32s CPU   2m18.44s WALL


   This run was terminated on:  20:29:40   8Jan2025            

=------------------------------------------------------------------------------=
   JOB DONE.
=------------------------------------------------------------------------------=
