
     Program BANDS v.6.4.1 starts on  9Jan2025 at 20:59:46 

     This program is part of the open-source Quantum ESPRESSO suite
     for quantum simulation of materials; please cite
         "P. Giannozzi et al., J. Phys.:Condens. Matter 21 395502 (2009);
         "P. Giannozzi et al., J. Phys.:Condens. Matter 29 465901 (2017);
          URL http://www.quantum-espresso.org", 
     in publications or presentations arising from this work. More details at
     http://www.quantum-espresso.org/quote

     Parallel version (MPI), running on     1 processors

     MPI processes distributed on     1 nodes

     Reading data from directory:
     ./out/aiida.save/

     IMPORTANT: XC functional enforced from input :
     Exchange-correlation      = PBE ( 1  4  3  4 0 0)
     Any further DFT definition will be discarded
     Please, verify this is what you really want


     G-vector sticks info
     --------------------
     sticks:   dense  smooth     PW     G-vecs:    dense   smooth      PW
     Sum        2275    1147    313               283153   100205   15071

     high-symmetry point:  0.0000 0.0000 0.0000   x coordinate   0.0000
     high-symmetry point:  0.0000 0.5774 0.0000   x coordinate   0.5774
     high-symmetry point:  0.3333 0.5773 0.0000   x coordinate   0.9107
     high-symmetry point:  0.0000 0.0000 0.0000   x coordinate   1.5773

     Plottable bands (eV) written to file hhk.bands.gnu
     Bands written to file hhk.bands

 **************************************************************************

                    xk=(   0.00000,   0.00000,   0.00000  )

     point group C_s (m)    
     there are  2 classes
     the character table:

       E     s    
A'     1.00  1.00
A''    1.00 -1.00

     the symmetry operations in each class and the name of the first element:

     E        1
                                                                 
     s        2
                                                                 

     Band symmetry, C_s (m)     point group:

     e(  1 -  1) =    -13.54313  eV     1   --> A'             
     e(  2 -  2) =    -10.48832  eV     1   --> A'             
     e(  3 -  3) =     -9.10653  eV     1   --> A''            
     e(  4 -  4) =     -9.10251  eV     1   --> A'             
     e(  5 -  5) =     -5.72954  eV     1   --> A'             
     e(  6 -  6) =     -5.50733  eV     1   --> A'             
     e(  7 -  7) =     -5.50486  eV     1   --> A''            
     e(  8 -  8) =     -3.54365  eV     1   --> A'             
     e(  9 -  9) =     -2.28870  eV     1   --> A''            
     e( 10 - 10) =     -2.28553  eV     1   --> A'             
     e( 11 - 11) =     -1.30191  eV     1   --> A'             
     e( 12 - 12) =      0.82604  eV     1   --> A'             

 **************************************************************************

 **************************************************************************

                    xk=(   0.00000,   0.01925,   0.00000  )

     point group C_1 (1)    
     there are  1 classes
     the character table:

       E    
A      1.00

     the symmetry operations in each class and the name of the first element:

     E        1
                                                                 

     Band symmetry, C_1 (1)     point group:

     e(  1 -  1) =    -13.54223  eV     1   --> A              
     e(  2 -  2) =    -10.49489  eV     1   --> A              
     e(  3 -  3) =     -9.10458  eV     1   --> A              
     e(  4 -  4) =     -9.09812  eV     1   --> A              
     e(  5 -  5) =     -5.72903  eV     1   --> A              
     e(  6 -  6) =     -5.50620  eV     1   --> A              
     e(  7 -  7) =     -5.50376  eV     1   --> A              
     e(  8 -  8) =     -3.54717  eV     1   --> A              
     e(  9 -  9) =     -2.28751  eV     1   --> A              
     e( 10 - 10) =     -2.28398  eV     1   --> A              
     e( 11 - 11) =     -1.30002  eV     1   --> A              
     e( 12 - 12) =      0.82694  eV     1   --> A              

 **************************************************************************

 **************************************************************************

                    xk=(   0.00000,   0.03849,   0.00000  )

     Band symmetry, C_1 (1)     point group:

     e(  1 -  1) =    -13.53953  eV     1   --> A              
     e(  2 -  2) =    -10.51419  eV     1   --> A              
     e(  3 -  3) =     -9.10584  eV     1   --> A              
     e(  4 -  4) =     -9.07823  eV     1   --> A              
     e(  5 -  5) =     -5.72757  eV     1   --> A              
     e(  6 -  6) =     -5.50586  eV     1   --> A              
     e(  7 -  7) =     -5.49731  eV     1   --> A              
     e(  8 -  8) =     -3.55761  eV     1   --> A              
     e(  9 -  9) =     -2.28860  eV     1   --> A              
     e( 10 - 10) =     -2.27481  eV     1   --> A              
     e( 11 - 11) =     -1.29435  eV     1   --> A              
     e( 12 - 12) =      0.82909  eV     1   --> A              

 **************************************************************************

 **************************************************************************

                    xk=(   0.00000,   0.05774,   0.00000  )

     Band symmetry, C_1 (1)     point group:

     e(  1 -  1) =    -13.53505  eV     1   --> A              
     e(  2 -  2) =    -10.54507  eV     1   --> A              
     e(  3 -  3) =     -9.10851  eV     1   --> A              
     e(  4 -  4) =     -9.04579  eV     1   --> A              
     e(  5 -  5) =     -5.72535  eV     1   --> A              
     e(  6 -  6) =     -5.50580  eV     1   --> A              
     e(  7 -  7) =     -5.48585  eV     1   --> A              
     e(  8 -  8) =     -3.57456  eV     1   --> A              
     e(  9 -  9) =     -2.29117  eV     1   --> A              
     e( 10 - 10) =     -2.25918  eV     1   --> A              
     e( 11 - 11) =     -1.28503  eV     1   --> A              
     e( 12 - 12) =      0.83024  eV     1   --> A              

 **************************************************************************

 **************************************************************************

                    xk=(   0.00000,   0.07698,   0.00000  )

     Band symmetry, C_1 (1)     point group:

     e(  1 -  1) =    -13.52879  eV     1   --> A              
     e(  2 -  2) =    -10.58597  eV     1   --> A              
     e(  3 -  3) =     -9.11227  eV     1   --> A              
     e(  4 -  4) =     -9.00269  eV     1   --> A              
     e(  5 -  5) =     -5.72271  eV     1   --> A              
     e(  6 -  6) =     -5.50524  eV     1   --> A              
     e(  7 -  7) =     -5.46982  eV     1   --> A              
     e(  8 -  8) =     -3.59744  eV     1   --> A              
     e(  9 -  9) =     -2.29481  eV     1   --> A              
     e( 10 - 10) =     -2.23807  eV     1   --> A              
     e( 11 - 11) =     -1.27230  eV     1   --> A              
     e( 12 - 12) =      0.82492  eV     1   --> A              

 **************************************************************************

 **************************************************************************

                    xk=(   0.00000,   0.09623,   0.00000  )

     Band symmetry, C_1 (1)     point group:

     e(  1 -  1) =    -13.52076  eV     1   --> A              
     e(  2 -  2) =    -10.63513  eV     1   --> A              
     e(  3 -  3) =     -9.11701  eV     1   --> A              
     e(  4 -  4) =     -8.95076  eV     1   --> A              
     e(  5 -  5) =     -5.72011  eV     1   --> A              
     e(  6 -  6) =     -5.50363  eV     1   --> A              
     e(  7 -  7) =     -5.44936  eV     1   --> A              
     e(  8 -  8) =     -3.62552  eV     1   --> A              
     e(  9 -  9) =     -2.29943  eV     1   --> A              
     e( 10 - 10) =     -2.21225  eV     1   --> A              
     e( 11 - 11) =     -1.25648  eV     1   --> A              
     e( 12 - 12) =      0.80313  eV     1   --> A              

 **************************************************************************

 **************************************************************************

                    xk=(   0.00000,   0.11547,   0.00000  )

     Band symmetry, C_1 (1)     point group:

     e(  1 -  1) =    -13.51099  eV     1   --> A              
     e(  2 -  2) =    -10.69086  eV     1   --> A              
     e(  3 -  3) =     -9.12267  eV     1   --> A              
     e(  4 -  4) =     -8.89176  eV     1   --> A              
     e(  5 -  5) =     -5.71814  eV     1   --> A              
     e(  6 -  6) =     -5.50027  eV     1   --> A              
     e(  7 -  7) =     -5.42460  eV     1   --> A              
     e(  8 -  8) =     -3.65800  eV     1   --> A              
     e(  9 -  9) =     -2.30494  eV     1   --> A              
     e( 10 - 10) =     -2.18252  eV     1   --> A              
     e( 11 - 11) =     -1.23801  eV     1   --> A              
     e( 12 - 12) =      0.75648  eV     1   --> A              

 **************************************************************************

 **************************************************************************

                    xk=(   0.00000,   0.13472,   0.00000  )

     Band symmetry, C_1 (1)     point group:

     e(  1 -  1) =    -13.49951  eV     1   --> A              
     e(  2 -  2) =    -10.75167  eV     1   --> A              
     e(  3 -  3) =     -9.12916  eV     1   --> A              
     e(  4 -  4) =     -8.82727  eV     1   --> A              
     e(  5 -  5) =     -5.71740  eV     1   --> A              
     e(  6 -  6) =     -5.49450  eV     1   --> A              
     e(  7 -  7) =     -5.39570  eV     1   --> A              
     e(  8 -  8) =     -3.69406  eV     1   --> A              
     e(  9 -  9) =     -2.31128  eV     1   --> A              
     e( 10 - 10) =     -2.14971  eV     1   --> A              
     e( 11 - 11) =     -1.21754  eV     1   --> A              
     e( 12 - 12) =      0.68680  eV     1   --> A              

 **************************************************************************

 **************************************************************************

                    xk=(   0.00000,   0.15396,   0.00000  )

     Band symmetry, C_1 (1)     point group:

     e(  1 -  1) =    -13.48634  eV     1   --> A              
     e(  2 -  2) =    -10.81629  eV     1   --> A              
     e(  3 -  3) =     -9.13639  eV     1   --> A              
     e(  4 -  4) =     -8.75866  eV     1   --> A              
     e(  5 -  5) =     -5.71842  eV     1   --> A              
     e(  6 -  6) =     -5.48567  eV     1   --> A              
     e(  7 -  7) =     -5.36284  eV     1   --> A              
     e(  8 -  8) =     -3.73293  eV     1   --> A              
     e(  9 -  9) =     -2.31838  eV     1   --> A              
     e( 10 - 10) =     -2.11460  eV     1   --> A              
     e( 11 - 11) =     -1.19591  eV     1   --> A              
     e( 12 - 12) =      0.60078  eV     1   --> A              

 **************************************************************************

 **************************************************************************

                    xk=(   0.00000,   0.17321,   0.00000  )

     Band symmetry, C_1 (1)     point group:

     e(  1 -  1) =    -13.47152  eV     1   --> A              
     e(  2 -  2) =    -10.88364  eV     1   --> A              
     e(  3 -  3) =     -9.14427  eV     1   --> A              
     e(  4 -  4) =     -8.68708  eV     1   --> A              
     e(  5 -  5) =     -5.72155  eV     1   --> A              
     e(  6 -  6) =     -5.47338  eV     1   --> A              
     e(  7 -  7) =     -5.32621  eV     1   --> A              
     e(  8 -  8) =     -3.77385  eV     1   --> A              
     e(  9 -  9) =     -2.32613  eV     1   --> A              
     e( 10 - 10) =     -2.07794  eV     1   --> A              
     e( 11 - 11) =     -1.17416  eV     1   --> A              
     e( 12 - 12) =      0.50463  eV     1   --> A              

 **************************************************************************

 **************************************************************************

                    xk=(   0.00000,   0.19245,   0.00000  )

     Band symmetry, C_1 (1)     point group:

     e(  1 -  1) =    -13.45509  eV     1   --> A              
     e(  2 -  2) =    -10.95286  eV     1   --> A              
     e(  3 -  3) =     -9.15268  eV     1   --> A              
     e(  4 -  4) =     -8.61353  eV     1   --> A              
     e(  5 -  5) =     -5.72688  eV     1   --> A              
     e(  6 -  6) =     -5.45747  eV     1   --> A              
     e(  7 -  7) =     -5.28606  eV     1   --> A              
     e(  8 -  8) =     -3.81609  eV     1   --> A              
     e(  9 -  9) =     -2.33444  eV     1   --> A              
     e( 10 - 10) =     -2.04042  eV     1   --> A              
     e( 11 - 11) =     -1.15370  eV     1   --> A              
     e( 12 - 12) =      0.40356  eV     1   --> A              

 **************************************************************************

 **************************************************************************

                    xk=(   0.00000,   0.21170,   0.00000  )

     Band symmetry, C_1 (1)     point group:

     e(  1 -  1) =    -13.43713  eV     1   --> A              
     e(  2 -  2) =    -11.02322  eV     1   --> A              
     e(  3 -  3) =     -9.16153  eV     1   --> A              
     e(  4 -  4) =     -8.53884  eV     1   --> A              
     e(  5 -  5) =     -5.73430  eV     1   --> A              
     e(  6 -  6) =     -5.43805  eV     1   --> A              
     e(  7 -  7) =     -5.24264  eV     1   --> A              
     e(  8 -  8) =     -3.85899  eV     1   --> A              
     e(  9 -  9) =     -2.34322  eV     1   --> A              
     e( 10 - 10) =     -2.00272  eV     1   --> A              
     e( 11 - 11) =     -1.13638  eV     1   --> A              
     e( 12 - 12) =      0.30046  eV     1   --> A              

 **************************************************************************

 **************************************************************************

                    xk=(   0.00000,   0.23094,   0.00000  )

     Band symmetry, C_1 (1)     point group:

     e(  1 -  1) =    -13.41768  eV     1   --> A              
     e(  2 -  2) =    -11.09413  eV     1   --> A              
     e(  3 -  3) =     -9.17069  eV     1   --> A              
     e(  4 -  4) =     -8.46374  eV     1   --> A              
     e(  5 -  5) =     -5.74351  eV     1   --> A              
     e(  6 -  6) =     -5.41540  eV     1   --> A              
     e(  7 -  7) =     -5.19622  eV     1   --> A              
     e(  8 -  8) =     -3.90190  eV     1   --> A              
     e(  9 -  9) =     -2.35237  eV     1   --> A              
     e( 10 - 10) =     -1.96546  eV     1   --> A              
     e( 11 - 11) =     -1.12448  eV     1   --> A              
     e( 12 - 12) =      0.17589  eV     1   --> A              

 **************************************************************************

 **************************************************************************

                    xk=(   0.00000,   0.25019,   0.00000  )

     Band symmetry, C_1 (1)     point group:

     e(  1 -  1) =    -13.39682  eV     1   --> A              
     e(  2 -  2) =    -11.16507  eV     1   --> A              
     e(  3 -  3) =     -9.18007  eV     1   --> A              
     e(  4 -  4) =     -8.38888  eV     1   --> A              
     e(  5 -  5) =     -5.75416  eV     1   --> A              
     e(  6 -  6) =     -5.38996  eV     1   --> A              
     e(  7 -  7) =     -5.14713  eV     1   --> A              
     e(  8 -  8) =     -3.94416  eV     1   --> A              
     e(  9 -  9) =     -2.36180  eV     1   --> A              
     e( 10 - 10) =     -1.92926  eV     1   --> A              
     e( 11 - 11) =     -1.12066  eV     1   --> A              
     e( 12 - 12) =      0.04831  eV     1   --> A              

 **************************************************************************

 **************************************************************************

                    xk=(   0.00000,   0.26943,   0.00000  )

     Band symmetry, C_1 (1)     point group:

     e(  1 -  1) =    -13.37465  eV     1   --> A              
     e(  2 -  2) =    -11.23561  eV     1   --> A              
     e(  3 -  3) =     -9.18954  eV     1   --> A              
     e(  4 -  4) =     -8.31483  eV     1   --> A              
     e(  5 -  5) =     -5.76588  eV     1   --> A              
     e(  6 -  6) =     -5.36222  eV     1   --> A              
     e(  7 -  7) =     -5.09570  eV     1   --> A              
     e(  8 -  8) =     -3.98517  eV     1   --> A              
     e(  9 -  9) =     -2.37140  eV     1   --> A              
     e( 10 - 10) =     -1.89477  eV     1   --> A              
     e( 11 - 11) =     -1.12765  eV     1   --> A              
     e( 12 - 12) =     -0.07906  eV     1   --> A              

 **************************************************************************

 **************************************************************************

                    xk=(   0.00000,   0.28868,   0.00000  )

     Band symmetry, C_1 (1)     point group:

     e(  1 -  1) =    -13.35128  eV     1   --> A              
     e(  2 -  2) =    -11.30534  eV     1   --> A              
     e(  3 -  3) =     -9.19902  eV     1   --> A              
     e(  4 -  4) =     -8.24214  eV     1   --> A              
     e(  5 -  5) =     -5.77834  eV     1   --> A              
     e(  6 -  6) =     -5.33275  eV     1   --> A              
     e(  7 -  7) =     -5.04232  eV     1   --> A              
     e(  8 -  8) =     -4.02429  eV     1   --> A              
     e(  9 -  9) =     -2.38109  eV     1   --> A              
     e( 10 - 10) =     -1.86274  eV     1   --> A              
     e( 11 - 11) =     -1.14770  eV     1   --> A              
     e( 12 - 12) =     -0.20522  eV     1   --> A              

 **************************************************************************

 **************************************************************************

                    xk=(   0.00000,   0.30792,   0.00000  )

     Band symmetry, C_1 (1)     point group:

     e(  1 -  1) =    -13.32683  eV     1   --> A              
     e(  2 -  2) =    -11.37391  eV     1   --> A              
     e(  3 -  3) =     -9.20839  eV     1   --> A              
     e(  4 -  4) =     -8.17129  eV     1   --> A              
     e(  5 -  5) =     -5.79122  eV     1   --> A              
     e(  6 -  6) =     -5.30212  eV     1   --> A              
     e(  7 -  7) =     -4.98740  eV     1   --> A              
     e(  8 -  8) =     -4.06090  eV     1   --> A              
     e(  9 -  9) =     -2.39077  eV     1   --> A              
     e( 10 - 10) =     -1.83407  eV     1   --> A              
     e( 11 - 11) =     -1.18140  eV     1   --> A              
     e( 12 - 12) =     -0.32916  eV     1   --> A              

 **************************************************************************

 **************************************************************************

                    xk=(   0.00000,   0.32717,   0.00000  )

     Band symmetry, C_1 (1)     point group:

     e(  1 -  1) =    -13.30146  eV     1   --> A              
     e(  2 -  2) =    -11.44095  eV     1   --> A              
     e(  3 -  3) =     -9.21755  eV     1   --> A              
     e(  4 -  4) =     -8.10275  eV     1   --> A              
     e(  5 -  5) =     -5.80424  eV     1   --> A              
     e(  6 -  6) =     -5.27101  eV     1   --> A              
     e(  7 -  7) =     -4.93140  eV     1   --> A              
     e(  8 -  8) =     -4.09433  eV     1   --> A              
     e(  9 -  9) =     -2.40034  eV     1   --> A              
     e( 10 - 10) =     -1.81006  eV     1   --> A              
     e( 11 - 11) =     -1.22722  eV     1   --> A              
     e( 12 - 12) =     -0.45008  eV     1   --> A              

 **************************************************************************

 **************************************************************************

                    xk=(   0.00000,   0.34641,   0.00000  )

     Band symmetry, C_1 (1)     point group:

     e(  1 -  1) =    -13.27537  eV     1   --> A              
     e(  2 -  2) =    -11.50613  eV     1   --> A              
     e(  3 -  3) =     -9.22642  eV     1   --> A              
     e(  4 -  4) =     -8.03700  eV     1   --> A              
     e(  5 -  5) =     -5.81717  eV     1   --> A              
     e(  6 -  6) =     -5.24012  eV     1   --> A              
     e(  7 -  7) =     -4.87486  eV     1   --> A              
     e(  8 -  8) =     -4.12397  eV     1   --> A              
     e(  9 -  9) =     -2.40975  eV     1   --> A              
     e( 10 - 10) =     -1.79262  eV     1   --> A              
     e( 11 - 11) =     -1.28121  eV     1   --> A              
     e( 12 - 12) =     -0.56723  eV     1   --> A              

 **************************************************************************

 **************************************************************************

                    xk=(   0.00000,   0.36566,   0.00000  )

     Band symmetry, C_1 (1)     point group:

     e(  1 -  1) =    -13.24876  eV     1   --> A              
     e(  2 -  2) =    -11.56908  eV     1   --> A              
     e(  3 -  3) =     -9.23490  eV     1   --> A              
     e(  4 -  4) =     -7.97445  eV     1   --> A              
     e(  5 -  5) =     -5.82980  eV     1   --> A              
     e(  6 -  6) =     -5.21019  eV     1   --> A              
     e(  7 -  7) =     -4.81835  eV     1   --> A              
     e(  8 -  8) =     -4.14922  eV     1   --> A              
     e(  9 -  9) =     -2.41890  eV     1   --> A              
     e( 10 - 10) =     -1.78461  eV     1   --> A              
     e( 11 - 11) =     -1.33734  eV     1   --> A              
     e( 12 - 12) =     -0.67980  eV     1   --> A              

 **************************************************************************

 **************************************************************************

                    xk=(   0.00000,   0.38490,   0.00000  )

     Band symmetry, C_1 (1)     point group:

     e(  1 -  1) =    -13.22191  eV     1   --> A              
     e(  2 -  2) =    -11.62942  eV     1   --> A              
     e(  3 -  3) =     -9.24291  eV     1   --> A              
     e(  4 -  4) =     -7.91554  eV     1   --> A              
     e(  5 -  5) =     -5.84191  eV     1   --> A              
     e(  6 -  6) =     -5.18197  eV     1   --> A              
     e(  7 -  7) =     -4.76249  eV     1   --> A              
     e(  8 -  8) =     -4.16955  eV     1   --> A              
     e(  9 -  9) =     -2.42772  eV     1   --> A              
     e( 10 - 10) =     -1.78988  eV     1   --> A              
     e( 11 - 11) =     -1.38821  eV     1   --> A              
     e( 12 - 12) =     -0.78696  eV     1   --> A              

 **************************************************************************

 **************************************************************************

                    xk=(   0.00000,   0.40415,   0.00000  )

     Band symmetry, C_1 (1)     point group:

     e(  1 -  1) =    -13.19515  eV     1   --> A              
     e(  2 -  2) =    -11.68674  eV     1   --> A              
     e(  3 -  3) =     -9.25039  eV     1   --> A              
     e(  4 -  4) =     -7.86068  eV     1   --> A              
     e(  5 -  5) =     -5.85337  eV     1   --> A              
     e(  6 -  6) =     -5.15617  eV     1   --> A              
     e(  7 -  7) =     -4.70800  eV     1   --> A              
     e(  8 -  8) =     -4.18462  eV     1   --> A              
     e(  9 -  9) =     -2.43613  eV     1   --> A              
     e( 10 - 10) =     -1.81201  eV     1   --> A              
     e( 11 - 11) =     -1.42706  eV     1   --> A              
     e( 12 - 12) =     -0.88792  eV     1   --> A              

 **************************************************************************

 **************************************************************************

                    xk=(   0.00000,   0.42339,   0.00000  )

     Band symmetry, C_1 (1)     point group:

     e(  1 -  1) =    -13.16884  eV     1   --> A              
     e(  2 -  2) =    -11.74056  eV     1   --> A              
     e(  3 -  3) =     -9.25726  eV     1   --> A              
     e(  4 -  4) =     -7.81028  eV     1   --> A              
     e(  5 -  5) =     -5.86402  eV     1   --> A              
     e(  6 -  6) =     -5.13337  eV     1   --> A              
     e(  7 -  7) =     -4.65565  eV     1   --> A              
     e(  8 -  8) =     -4.19430  eV     1   --> A              
     e(  9 -  9) =     -2.44407  eV     1   --> A              
     e( 10 - 10) =     -1.85113  eV     1   --> A              
     e( 11 - 11) =     -1.45083  eV     1   --> A              
     e( 12 - 12) =     -0.98179  eV     1   --> A              

 **************************************************************************

 **************************************************************************

                    xk=(   0.00000,   0.44264,   0.00000  )

     Band symmetry, C_1 (1)     point group:

     e(  1 -  1) =    -13.14344  eV     1   --> A              
     e(  2 -  2) =    -11.79039  eV     1   --> A              
     e(  3 -  3) =     -9.26346  eV     1   --> A              
     e(  4 -  4) =     -7.76472  eV     1   --> A              
     e(  5 -  5) =     -5.87373  eV     1   --> A              
     e(  6 -  6) =     -5.11397  eV     1   --> A              
     e(  7 -  7) =     -4.60628  eV     1   --> A              
     e(  8 -  8) =     -4.19878  eV     1   --> A              
     e(  9 -  9) =     -2.45144  eV     1   --> A              
     e( 10 - 10) =     -1.90263  eV     1   --> A              
     e( 11 - 11) =     -1.46163  eV     1   --> A              
     e( 12 - 12) =     -1.06768  eV     1   --> A              

 **************************************************************************

 **************************************************************************

                    xk=(   0.00000,   0.46188,   0.00000  )

     Band symmetry, C_1 (1)     point group:

     e(  1 -  1) =    -13.11948  eV     1   --> A              
     e(  2 -  2) =    -11.83562  eV     1   --> A              
     e(  3 -  3) =     -9.26894  eV     1   --> A              
     e(  4 -  4) =     -7.72436  eV     1   --> A              
     e(  5 -  5) =     -5.88238  eV     1   --> A              
     e(  6 -  6) =     -5.09813  eV     1   --> A              
     e(  7 -  7) =     -4.56081  eV     1   --> A              
     e(  8 -  8) =     -4.19867  eV     1   --> A              
     e(  9 -  9) =     -2.45816  eV     1   --> A              
     e( 10 - 10) =     -1.95977  eV     1   --> A              
     e( 11 - 11) =     -1.46393  eV     1   --> A              
     e( 12 - 12) =     -1.14469  eV     1   --> A              

 **************************************************************************

 **************************************************************************

                    xk=(   0.00000,   0.48113,   0.00000  )

     Band symmetry, C_1 (1)     point group:

     e(  1 -  1) =    -13.09755  eV     1   --> A              
     e(  2 -  2) =    -11.87563  eV     1   --> A              
     e(  3 -  3) =     -9.27366  eV     1   --> A              
     e(  4 -  4) =     -7.68955  eV     1   --> A              
     e(  5 -  5) =     -5.88989  eV     1   --> A              
     e(  6 -  6) =     -5.08576  eV     1   --> A              
     e(  7 -  7) =     -4.52013  eV     1   --> A              
     e(  8 -  8) =     -4.19493  eV     1   --> A              
     e(  9 -  9) =     -2.46414  eV     1   --> A              
     e( 10 - 10) =     -2.01656  eV     1   --> A              
     e( 11 - 11) =     -1.46171  eV     1   --> A              
     e( 12 - 12) =     -1.21187  eV     1   --> A              

 **************************************************************************

 **************************************************************************

                    xk=(   0.00000,   0.50037,   0.00000  )

     Band symmetry, C_1 (1)     point group:

     e(  1 -  1) =    -13.07828  eV     1   --> A              
     e(  2 -  2) =    -11.90973  eV     1   --> A              
     e(  3 -  3) =     -9.27757  eV     1   --> A              
     e(  4 -  4) =     -7.66061  eV     1   --> A              
     e(  5 -  5) =     -5.89615  eV     1   --> A              
     e(  6 -  6) =     -5.07657  eV     1   --> A              
     e(  7 -  7) =     -4.48522  eV     1   --> A              
     e(  8 -  8) =     -4.18888  eV     1   --> A              
     e(  9 -  9) =     -2.46926  eV     1   --> A              
     e( 10 - 10) =     -2.06844  eV     1   --> A              
     e( 11 - 11) =     -1.45761  eV     1   --> A              
     e( 12 - 12) =     -1.26834  eV     1   --> A              

 **************************************************************************

 **************************************************************************

                    xk=(   0.00000,   0.51962,   0.00000  )

     Band symmetry, C_1 (1)     point group:

     e(  1 -  1) =    -13.06237  eV     1   --> A              
     e(  2 -  2) =    -11.93721  eV     1   --> A              
     e(  3 -  3) =     -9.28064  eV     1   --> A              
     e(  4 -  4) =     -7.63779  eV     1   --> A              
     e(  5 -  5) =     -5.90109  eV     1   --> A              
     e(  6 -  6) =     -5.07010  eV     1   --> A              
     e(  7 -  7) =     -4.45696  eV     1   --> A              
     e(  8 -  8) =     -4.18199  eV     1   --> A              
     e(  9 -  9) =     -2.47340  eV     1   --> A              
     e( 10 - 10) =     -2.11209  eV     1   --> A              
     e( 11 - 11) =     -1.45325  eV     1   --> A              
     e( 12 - 12) =     -1.31326  eV     1   --> A              

 **************************************************************************

 **************************************************************************

                    xk=(   0.00000,   0.53886,   0.00000  )

     Band symmetry, C_1 (1)     point group:

     e(  1 -  1) =    -13.05044  eV     1   --> A              
     e(  2 -  2) =    -11.95742  eV     1   --> A              
     e(  3 -  3) =     -9.28286  eV     1   --> A              
     e(  4 -  4) =     -7.62133  eV     1   --> A              
     e(  5 -  5) =     -5.90467  eV     1   --> A              
     e(  6 -  6) =     -5.06591  eV     1   --> A              
     e(  7 -  7) =     -4.43614  eV     1   --> A              
     e(  8 -  8) =     -4.17577  eV     1   --> A              
     e(  9 -  9) =     -2.47647  eV     1   --> A              
     e( 10 - 10) =     -2.14504  eV     1   --> A              
     e( 11 - 11) =     -1.44961  eV     1   --> A              
     e( 12 - 12) =     -1.34592  eV     1   --> A              

 **************************************************************************

 **************************************************************************

                    xk=(   0.00000,   0.55811,   0.00000  )

     Band symmetry, C_1 (1)     point group:

     e(  1 -  1) =    -13.04304  eV     1   --> A              
     e(  2 -  2) =    -11.96980  eV     1   --> A              
     e(  3 -  3) =     -9.28419  eV     1   --> A              
     e(  4 -  4) =     -7.61139  eV     1   --> A              
     e(  5 -  5) =     -5.90683  eV     1   --> A              
     e(  6 -  6) =     -5.06358  eV     1   --> A              
     e(  7 -  7) =     -4.42337  eV     1   --> A              
     e(  8 -  8) =     -4.17147  eV     1   --> A              
     e(  9 -  9) =     -2.47835  eV     1   --> A              
     e( 10 - 10) =     -2.16552  eV     1   --> A              
     e( 11 - 11) =     -1.44724  eV     1   --> A              
     e( 12 - 12) =     -1.36576  eV     1   --> A              

 **************************************************************************

 **************************************************************************

                    xk=(   0.00000,   0.57735,   0.00000  )

     Band symmetry, C_1 (1)     point group:

     e(  1 -  1) =    -13.04053  eV     1   --> A              
     e(  2 -  2) =    -11.97397  eV     1   --> A              
     e(  3 -  3) =     -9.28464  eV     1   --> A              
     e(  4 -  4) =     -7.60806  eV     1   --> A              
     e(  5 -  5) =     -5.90756  eV     1   --> A              
     e(  6 -  6) =     -5.06283  eV     1   --> A              
     e(  7 -  7) =     -4.41907  eV     1   --> A              
     e(  8 -  8) =     -4.16994  eV     1   --> A              
     e(  9 -  9) =     -2.47899  eV     1   --> A              
     e( 10 - 10) =     -2.17246  eV     1   --> A              
     e( 11 - 11) =     -1.44641  eV     1   --> A              
     e( 12 - 12) =     -1.37241  eV     1   --> A              

 **************************************************************************

 **************************************************************************

                    xk=(   0.01111,   0.57735,   0.00000  )

     Band symmetry, C_1 (1)     point group:

     e(  1 -  1) =    -13.04027  eV     1   --> A              
     e(  2 -  2) =    -11.97437  eV     1   --> A              
     e(  3 -  3) =     -9.28510  eV     1   --> A              
     e(  4 -  4) =     -7.60660  eV     1   --> A              
     e(  5 -  5) =     -5.90873  eV     1   --> A              
     e(  6 -  6) =     -5.06233  eV     1   --> A              
     e(  7 -  7) =     -4.41869  eV     1   --> A              
     e(  8 -  8) =     -4.17042  eV     1   --> A              
     e(  9 -  9) =     -2.48325  eV     1   --> A              
     e( 10 - 10) =     -2.16773  eV     1   --> A              
     e( 11 - 11) =     -1.44647  eV     1   --> A              
     e( 12 - 12) =     -1.37138  eV     1   --> A              

 **************************************************************************

 **************************************************************************

                    xk=(   0.02222,   0.57735,   0.00000  )

     Band symmetry, C_1 (1)     point group:

     e(  1 -  1) =    -13.03948  eV     1   --> A              
     e(  2 -  2) =    -11.97557  eV     1   --> A              
     e(  3 -  3) =     -9.28649  eV     1   --> A              
     e(  4 -  4) =     -7.60221  eV     1   --> A              
     e(  5 -  5) =     -5.91225  eV     1   --> A              
     e(  6 -  6) =     -5.06082  eV     1   --> A              
     e(  7 -  7) =     -4.41757  eV     1   --> A              
     e(  8 -  8) =     -4.17190  eV     1   --> A              
     e(  9 -  9) =     -2.49533  eV     1   --> A              
     e( 10 - 10) =     -2.15429  eV     1   --> A              
     e( 11 - 11) =     -1.44658  eV     1   --> A              
     e( 12 - 12) =     -1.36838  eV     1   --> A              

 **************************************************************************

 **************************************************************************

                    xk=(   0.03333,   0.57734,   0.00000  )

     Band symmetry, C_1 (1)     point group:

     e(  1 -  1) =    -13.03817  eV     1   --> A              
     e(  2 -  2) =    -11.97758  eV     1   --> A              
     e(  3 -  3) =     -9.28877  eV     1   --> A              
     e(  4 -  4) =     -7.59494  eV     1   --> A              
     e(  5 -  5) =     -5.91809  eV     1   --> A              
     e(  6 -  6) =     -5.05830  eV     1   --> A              
     e(  7 -  7) =     -4.41575  eV     1   --> A              
     e(  8 -  8) =     -4.17435  eV     1   --> A              
     e(  9 -  9) =     -2.51351  eV     1   --> A              
     e( 10 - 10) =     -2.13382  eV     1   --> A              
     e( 11 - 11) =     -1.44656  eV     1   --> A              
     e( 12 - 12) =     -1.36360  eV     1   --> A              

 **************************************************************************

 **************************************************************************

                    xk=(   0.04444,   0.57734,   0.00000  )

     Band symmetry, C_1 (1)     point group:

     e(  1 -  1) =    -13.03634  eV     1   --> A              
     e(  2 -  2) =    -11.98036  eV     1   --> A              
     e(  3 -  3) =     -9.29190  eV     1   --> A              
     e(  4 -  4) =     -7.58484  eV     1   --> A              
     e(  5 -  5) =     -5.92621  eV     1   --> A              
     e(  6 -  6) =     -5.05475  eV     1   --> A              
     e(  7 -  7) =     -4.41326  eV     1   --> A              
     e(  8 -  8) =     -4.17776  eV     1   --> A              
     e(  9 -  9) =     -2.53595  eV     1   --> A              
     e( 10 - 10) =     -2.10814  eV     1   --> A              
     e( 11 - 11) =     -1.44618  eV     1   --> A              
     e( 12 - 12) =     -1.35727  eV     1   --> A              

 **************************************************************************

 **************************************************************************

                    xk=(   0.05555,   0.57734,   0.00000  )

     Band symmetry, C_1 (1)     point group:

     e(  1 -  1) =    -13.03401  eV     1   --> A              
     e(  2 -  2) =    -11.98392  eV     1   --> A              
     e(  3 -  3) =     -9.29582  eV     1   --> A              
     e(  4 -  4) =     -7.57199  eV     1   --> A              
     e(  5 -  5) =     -5.93656  eV     1   --> A              
     e(  6 -  6) =     -5.05017  eV     1   --> A              
     e(  7 -  7) =     -4.41017  eV     1   --> A              
     e(  8 -  8) =     -4.18212  eV     1   --> A              
     e(  9 -  9) =     -2.56115  eV     1   --> A              
     e( 10 - 10) =     -2.07871  eV     1   --> A              
     e( 11 - 11) =     -1.44523  eV     1   --> A              
     e( 12 - 12) =     -1.34967  eV     1   --> A              

 **************************************************************************

 **************************************************************************

                    xk=(   0.06666,   0.57734,   0.00000  )

     Band symmetry, C_1 (1)     point group:

     e(  1 -  1) =    -13.03117  eV     1   --> A              
     e(  2 -  2) =    -11.98823  eV     1   --> A              
     e(  3 -  3) =     -9.30047  eV     1   --> A              
     e(  4 -  4) =     -7.55650  eV     1   --> A              
     e(  5 -  5) =     -5.94908  eV     1   --> A              
     e(  6 -  6) =     -5.04453  eV     1   --> A              
     e(  7 -  7) =     -4.40658  eV     1   --> A              
     e(  8 -  8) =     -4.18741  eV     1   --> A              
     e(  9 -  9) =     -2.58803  eV     1   --> A              
     e( 10 - 10) =     -2.04662  eV     1   --> A              
     e( 11 - 11) =     -1.44352  eV     1   --> A              
     e( 12 - 12) =     -1.34103  eV     1   --> A              

 **************************************************************************

 **************************************************************************

                    xk=(   0.07777,   0.57734,   0.00000  )

     Band symmetry, C_1 (1)     point group:

     e(  1 -  1) =    -13.02786  eV     1   --> A              
     e(  2 -  2) =    -11.99326  eV     1   --> A              
     e(  3 -  3) =     -9.30575  eV     1   --> A              
     e(  4 -  4) =     -7.53847  eV     1   --> A              
     e(  5 -  5) =     -5.96369  eV     1   --> A              
     e(  6 -  6) =     -5.03783  eV     1   --> A              
     e(  7 -  7) =     -4.40260  eV     1   --> A              
     e(  8 -  8) =     -4.19359  eV     1   --> A              
     e(  9 -  9) =     -2.61584  eV     1   --> A              
     e( 10 - 10) =     -2.01257  eV     1   --> A              
     e( 11 - 11) =     -1.44090  eV     1   --> A              
     e( 12 - 12) =     -1.33159  eV     1   --> A              

 **************************************************************************

 **************************************************************************

                    xk=(   0.08888,   0.57733,   0.00000  )

     Band symmetry, C_1 (1)     point group:

     e(  1 -  1) =    -13.02407  eV     1   --> A              
     e(  2 -  2) =    -11.99899  eV     1   --> A              
     e(  3 -  3) =     -9.31159  eV     1   --> A              
     e(  4 -  4) =     -7.51803  eV     1   --> A              
     e(  5 -  5) =     -5.98030  eV     1   --> A              
     e(  6 -  6) =     -5.03005  eV     1   --> A              
     e(  7 -  7) =     -4.39833  eV     1   --> A              
     e(  8 -  8) =     -4.20063  eV     1   --> A              
     e(  9 -  9) =     -2.64405  eV     1   --> A              
     e( 10 - 10) =     -1.97702  eV     1   --> A              
     e( 11 - 11) =     -1.43725  eV     1   --> A              
     e( 12 - 12) =     -1.32149  eV     1   --> A              

 **************************************************************************

 **************************************************************************

                    xk=(   0.09999,   0.57733,   0.00000  )

     Band symmetry, C_1 (1)     point group:

     e(  1 -  1) =    -13.01983  eV     1   --> A              
     e(  2 -  2) =    -12.00539  eV     1   --> A              
     e(  3 -  3) =     -9.31788  eV     1   --> A              
     e(  4 -  4) =     -7.49532  eV     1   --> A              
     e(  5 -  5) =     -5.99882  eV     1   --> A              
     e(  6 -  6) =     -5.02119  eV     1   --> A              
     e(  7 -  7) =     -4.39392  eV     1   --> A              
     e(  8 -  8) =     -4.20847  eV     1   --> A              
     e(  9 -  9) =     -2.67229  eV     1   --> A              
     e( 10 - 10) =     -1.94032  eV     1   --> A              
     e( 11 - 11) =     -1.43250  eV     1   --> A              
     e( 12 - 12) =     -1.31091  eV     1   --> A              

 **************************************************************************

 **************************************************************************

                    xk=(   0.11110,   0.57733,   0.00000  )

     Band symmetry, C_1 (1)     point group:

     e(  1 -  1) =    -13.01515  eV     1   --> A              
     e(  2 -  2) =    -12.01241  eV     1   --> A              
     e(  3 -  3) =     -9.32452  eV     1   --> A              
     e(  4 -  4) =     -7.47049  eV     1   --> A              
     e(  5 -  5) =     -6.01915  eV     1   --> A              
     e(  6 -  6) =     -5.01122  eV     1   --> A              
     e(  7 -  7) =     -4.38950  eV     1   --> A              
     e(  8 -  8) =     -4.21706  eV     1   --> A              
     e(  9 -  9) =     -2.70027  eV     1   --> A              
     e( 10 - 10) =     -1.90270  eV     1   --> A              
     e( 11 - 11) =     -1.42659  eV     1   --> A              
     e( 12 - 12) =     -1.29997  eV     1   --> A              

 **************************************************************************

 **************************************************************************

                    xk=(   0.12221,   0.57733,   0.00000  )

     Band symmetry, C_1 (1)     point group:

     e(  1 -  1) =    -13.01008  eV     1   --> A              
     e(  2 -  2) =    -12.02000  eV     1   --> A              
     e(  3 -  3) =     -9.33143  eV     1   --> A              
     e(  4 -  4) =     -7.44368  eV     1   --> A              
     e(  5 -  5) =     -6.04118  eV     1   --> A              
     e(  6 -  6) =     -5.00015  eV     1   --> A              
     e(  7 -  7) =     -4.38524  eV     1   --> A              
     e(  8 -  8) =     -4.22629  eV     1   --> A              
     e(  9 -  9) =     -2.72779  eV     1   --> A              
     e( 10 - 10) =     -1.86429  eV     1   --> A              
     e( 11 - 11) =     -1.41949  eV     1   --> A              
     e( 12 - 12) =     -1.28877  eV     1   --> A              

 **************************************************************************

 **************************************************************************

                    xk=(   0.13332,   0.57733,   0.00000  )

     Band symmetry, C_1 (1)     point group:

     e(  1 -  1) =    -13.00463  eV     1   --> A              
     e(  2 -  2) =    -12.02813  eV     1   --> A              
     e(  3 -  3) =     -9.33851  eV     1   --> A              
     e(  4 -  4) =     -7.41507  eV     1   --> A              
     e(  5 -  5) =     -6.06481  eV     1   --> A              
     e(  6 -  6) =     -4.98799  eV     1   --> A              
     e(  7 -  7) =     -4.38136  eV     1   --> A              
     e(  8 -  8) =     -4.23604  eV     1   --> A              
     e(  9 -  9) =     -2.75466  eV     1   --> A              
     e( 10 - 10) =     -1.82525  eV     1   --> A              
     e( 11 - 11) =     -1.41121  eV     1   --> A              
     e( 12 - 12) =     -1.27745  eV     1   --> A              

 **************************************************************************

 **************************************************************************

                    xk=(   0.14443,   0.57733,   0.00000  )

     Band symmetry, C_1 (1)     point group:

     e(  1 -  1) =    -12.99883  eV     1   --> A              
     e(  2 -  2) =    -12.03672  eV     1   --> A              
     e(  3 -  3) =     -9.34566  eV     1   --> A              
     e(  4 -  4) =     -7.38482  eV     1   --> A              
     e(  5 -  5) =     -6.08991  eV     1   --> A              
     e(  6 -  6) =     -4.97473  eV     1   --> A              
     e(  7 -  7) =     -4.37809  eV     1   --> A              
     e(  8 -  8) =     -4.24615  eV     1   --> A              
     e(  9 -  9) =     -2.78075  eV     1   --> A              
     e( 10 - 10) =     -1.78566  eV     1   --> A              
     e( 11 - 11) =     -1.40174  eV     1   --> A              
     e( 12 - 12) =     -1.26607  eV     1   --> A              

 **************************************************************************

 **************************************************************************

                    xk=(   0.15554,   0.57732,   0.00000  )

     Band symmetry, C_1 (1)     point group:

     e(  1 -  1) =    -12.99273  eV     1   --> A              
     e(  2 -  2) =    -12.04573  eV     1   --> A              
     e(  3 -  3) =     -9.35280  eV     1   --> A              
     e(  4 -  4) =     -7.35308  eV     1   --> A              
     e(  5 -  5) =     -6.11636  eV     1   --> A              
     e(  6 -  6) =     -4.96038  eV     1   --> A              
     e(  7 -  7) =     -4.37572  eV     1   --> A              
     e(  8 -  8) =     -4.25636  eV     1   --> A              
     e(  9 -  9) =     -2.80592  eV     1   --> A              
     e( 10 - 10) =     -1.74560  eV     1   --> A              
     e( 11 - 11) =     -1.39111  eV     1   --> A              
     e( 12 - 12) =     -1.25469  eV     1   --> A              

 **************************************************************************

 **************************************************************************

                    xk=(   0.16665,   0.57732,   0.00000  )

     Band symmetry, C_1 (1)     point group:

     e(  1 -  1) =    -12.98637  eV     1   --> A              
     e(  2 -  2) =    -12.05507  eV     1   --> A              
     e(  3 -  3) =     -9.35985  eV     1   --> A              
     e(  4 -  4) =     -7.32002  eV     1   --> A              
     e(  5 -  5) =     -6.14406  eV     1   --> A              
     e(  6 -  6) =     -4.94498  eV     1   --> A              
     e(  7 -  7) =     -4.37465  eV     1   --> A              
     e(  8 -  8) =     -4.26634  eV     1   --> A              
     e(  9 -  9) =     -2.83007  eV     1   --> A              
     e( 10 - 10) =     -1.70512  eV     1   --> A              
     e( 11 - 11) =     -1.37937  eV     1   --> A              
     e( 12 - 12) =     -1.24336  eV     1   --> A              

 **************************************************************************

 **************************************************************************

                    xk=(   0.17776,   0.57732,   0.00000  )

     Band symmetry, C_1 (1)     point group:

     e(  1 -  1) =    -12.97980  eV     1   --> A              
     e(  2 -  2) =    -12.06467  eV     1   --> A              
     e(  3 -  3) =     -9.36673  eV     1   --> A              
     e(  4 -  4) =     -7.28583  eV     1   --> A              
     e(  5 -  5) =     -6.17287  eV     1   --> A              
     e(  6 -  6) =     -4.92854  eV     1   --> A              
     e(  7 -  7) =     -4.37534  eV     1   --> A              
     e(  8 -  8) =     -4.27564  eV     1   --> A              
     e(  9 -  9) =     -2.85310  eV     1   --> A              
     e( 10 - 10) =     -1.66430  eV     1   --> A              
     e( 11 - 11) =     -1.36657  eV     1   --> A              
     e( 12 - 12) =     -1.23210  eV     1   --> A              

 **************************************************************************

 **************************************************************************

                    xk=(   0.18887,   0.57732,   0.00000  )

     Band symmetry, C_1 (1)     point group:

     e(  1 -  1) =    -12.97307  eV     1   --> A              
     e(  2 -  2) =    -12.07445  eV     1   --> A              
     e(  3 -  3) =     -9.37338  eV     1   --> A              
     e(  4 -  4) =     -7.25066  eV     1   --> A              
     e(  5 -  5) =     -6.20267  eV     1   --> A              
     e(  6 -  6) =     -4.91111  eV     1   --> A              
     e(  7 -  7) =     -4.37832  eV     1   --> A              
     e(  8 -  8) =     -4.28377  eV     1   --> A              
     e(  9 -  9) =     -2.87492  eV     1   --> A              
     e( 10 - 10) =     -1.62319  eV     1   --> A              
     e( 11 - 11) =     -1.35279  eV     1   --> A              
     e( 12 - 12) =     -1.22092  eV     1   --> A              

 **************************************************************************

 **************************************************************************

                    xk=(   0.19998,   0.57732,   0.00000  )

     Band symmetry, C_1 (1)     point group:

     e(  1 -  1) =    -12.96625  eV     1   --> A              
     e(  2 -  2) =    -12.08431  eV     1   --> A              
     e(  3 -  3) =     -9.37973  eV     1   --> A              
     e(  4 -  4) =     -7.21471  eV     1   --> A              
     e(  5 -  5) =     -6.23334  eV     1   --> A              
     e(  6 -  6) =     -4.89273  eV     1   --> A              
     e(  7 -  7) =     -4.38402  eV     1   --> A              
     e(  8 -  8) =     -4.29030  eV     1   --> A              
     e(  9 -  9) =     -2.89546  eV     1   --> A              
     e( 10 - 10) =     -1.58189  eV     1   --> A              
     e( 11 - 11) =     -1.33812  eV     1   --> A              
     e( 12 - 12) =     -1.20978  eV     1   --> A              

 **************************************************************************

 **************************************************************************

                    xk=(   0.21109,   0.57731,   0.00000  )

     Band symmetry, C_1 (1)     point group:

     e(  1 -  1) =    -12.95940  eV     1   --> A              
     e(  2 -  2) =    -12.09415  eV     1   --> A              
     e(  3 -  3) =     -9.38572  eV     1   --> A              
     e(  4 -  4) =     -7.17817  eV     1   --> A              
     e(  5 -  5) =     -6.26472  eV     1   --> A              
     e(  6 -  6) =     -4.87347  eV     1   --> A              
     e(  7 -  7) =     -4.39258  eV     1   --> A              
     e(  8 -  8) =     -4.29506  eV     1   --> A              
     e(  9 -  9) =     -2.91463  eV     1   --> A              
     e( 10 - 10) =     -1.54049  eV     1   --> A              
     e( 11 - 11) =     -1.32266  eV     1   --> A              
     e( 12 - 12) =     -1.19858  eV     1   --> A              

 **************************************************************************

 **************************************************************************

                    xk=(   0.22220,   0.57731,   0.00000  )

     Band symmetry, C_1 (1)     point group:

     e(  1 -  1) =    -12.95260  eV     1   --> A              
     e(  2 -  2) =    -12.10385  eV     1   --> A              
     e(  3 -  3) =     -9.39132  eV     1   --> A              
     e(  4 -  4) =     -7.14124  eV     1   --> A              
     e(  5 -  5) =     -6.29667  eV     1   --> A              
     e(  6 -  6) =     -4.85339  eV     1   --> A              
     e(  7 -  7) =     -4.40382  eV     1   --> A              
     e(  8 -  8) =     -4.29824  eV     1   --> A              
     e(  9 -  9) =     -2.93238  eV     1   --> A              
     e( 10 - 10) =     -1.49916  eV     1   --> A              
     e( 11 - 11) =     -1.30652  eV     1   --> A              
     e( 12 - 12) =     -1.18721  eV     1   --> A              

 **************************************************************************

 **************************************************************************

                    xk=(   0.23331,   0.57731,   0.00000  )

     Band symmetry, C_1 (1)     point group:

     e(  1 -  1) =    -12.94594  eV     1   --> A              
     e(  2 -  2) =    -12.11331  eV     1   --> A              
     e(  3 -  3) =     -9.39649  eV     1   --> A              
     e(  4 -  4) =     -7.10416  eV     1   --> A              
     e(  5 -  5) =     -6.32899  eV     1   --> A              
     e(  6 -  6) =     -4.83261  eV     1   --> A              
     e(  7 -  7) =     -4.41727  eV     1   --> A              
     e(  8 -  8) =     -4.30021  eV     1   --> A              
     e(  9 -  9) =     -2.94866  eV     1   --> A              
     e( 10 - 10) =     -1.45813  eV     1   --> A              
     e( 11 - 11) =     -1.28976  eV     1   --> A              
     e( 12 - 12) =     -1.17547  eV     1   --> A              

 **************************************************************************

 **************************************************************************

                    xk=(   0.24442,   0.57731,   0.00000  )

     Band symmetry, C_1 (1)     point group:

     e(  1 -  1) =    -12.93951  eV     1   --> A              
     e(  2 -  2) =    -12.12240  eV     1   --> A              
     e(  3 -  3) =     -9.40118  eV     1   --> A              
     e(  4 -  4) =     -7.06720  eV     1   --> A              
     e(  5 -  5) =     -6.36147  eV     1   --> A              
     e(  6 -  6) =     -4.81124  eV     1   --> A              
     e(  7 -  7) =     -4.43245  eV     1   --> A              
     e(  8 -  8) =     -4.30138  eV     1   --> A              
     e(  9 -  9) =     -2.96339  eV     1   --> A              
     e( 10 - 10) =     -1.41785  eV     1   --> A              
     e( 11 - 11) =     -1.27237  eV     1   --> A              
     e( 12 - 12) =     -1.16310  eV     1   --> A              

 **************************************************************************

 **************************************************************************

                    xk=(   0.25553,   0.57731,   0.00000  )

     Band symmetry, C_1 (1)     point group:

     e(  1 -  1) =    -12.93341  eV     1   --> A              
     e(  2 -  2) =    -12.13096  eV     1   --> A              
     e(  3 -  3) =     -9.40536  eV     1   --> A              
     e(  4 -  4) =     -7.03070  eV     1   --> A              
     e(  5 -  5) =     -6.39383  eV     1   --> A              
     e(  6 -  6) =     -4.78946  eV     1   --> A              
     e(  7 -  7) =     -4.44890  eV     1   --> A              
     e(  8 -  8) =     -4.30207  eV     1   --> A              
     e(  9 -  9) =     -2.97654  eV     1   --> A              
     e( 10 - 10) =     -1.37904  eV     1   --> A              
     e( 11 - 11) =     -1.25403  eV     1   --> A              
     e( 12 - 12) =     -1.14977  eV     1   --> A              

 **************************************************************************

 **************************************************************************

                    xk=(   0.26664,   0.57730,   0.00000  )

     Band symmetry, C_1 (1)     point group:

     e(  1 -  1) =    -12.92776  eV     1   --> A              
     e(  2 -  2) =    -12.13887  eV     1   --> A              
     e(  3 -  3) =     -9.40903  eV     1   --> A              
     e(  4 -  4) =     -6.99508  eV     1   --> A              
     e(  5 -  5) =     -6.42569  eV     1   --> A              
     e(  6 -  6) =     -4.76748  eV     1   --> A              
     e(  7 -  7) =     -4.46621  eV     1   --> A              
     e(  8 -  8) =     -4.30252  eV     1   --> A              
     e(  9 -  9) =     -2.98807  eV     1   --> A              
     e( 10 - 10) =     -1.34302  eV     1   --> A              
     e( 11 - 11) =     -1.23395  eV     1   --> A              
     e( 12 - 12) =     -1.13517  eV     1   --> A              

 **************************************************************************

 **************************************************************************

                    xk=(   0.27775,   0.57730,   0.00000  )

     Band symmetry, C_1 (1)     point group:

     e(  1 -  1) =    -12.92266  eV     1   --> A              
     e(  2 -  2) =    -12.14596  eV     1   --> A              
     e(  3 -  3) =     -9.41215  eV     1   --> A              
     e(  4 -  4) =     -6.96095  eV     1   --> A              
     e(  5 -  5) =     -6.45651  eV     1   --> A              
     e(  6 -  6) =     -4.74562  eV     1   --> A              
     e(  7 -  7) =     -4.48398  eV     1   --> A              
     e(  8 -  8) =     -4.30286  eV     1   --> A              
     e(  9 -  9) =     -2.99794  eV     1   --> A              
     e( 10 - 10) =     -1.31177  eV     1   --> A              
     e( 11 - 11) =     -1.21058  eV     1   --> A              
     e( 12 - 12) =     -1.11897  eV     1   --> A              

 **************************************************************************

 **************************************************************************

                    xk=(   0.28886,   0.57730,   0.00000  )

     Band symmetry, C_1 (1)     point group:

     e(  1 -  1) =    -12.91824  eV     1   --> A              
     e(  2 -  2) =    -12.15209  eV     1   --> A              
     e(  3 -  3) =     -9.41472  eV     1   --> A              
     e(  4 -  4) =     -6.92914  eV     1   --> A              
     e(  5 -  5) =     -6.48549  eV     1   --> A              
     e(  6 -  6) =     -4.72436  eV     1   --> A              
     e(  7 -  7) =     -4.50170  eV     1   --> A              
     e(  8 -  8) =     -4.30317  eV     1   --> A              
     e(  9 -  9) =     -3.00610  eV     1   --> A              
     e( 10 - 10) =     -1.28732  eV     1   --> A              
     e( 11 - 11) =     -1.18235  eV     1   --> A              
     e( 12 - 12) =     -1.10095  eV     1   --> A              

 **************************************************************************

 **************************************************************************

                    xk=(   0.29997,   0.57730,   0.00000  )

     Band symmetry, C_1 (1)     point group:

     e(  1 -  1) =    -12.91462  eV     1   --> A              
     e(  2 -  2) =    -12.15710  eV     1   --> A              
     e(  3 -  3) =     -9.41673  eV     1   --> A              
     e(  4 -  4) =     -6.90090  eV     1   --> A              
     e(  5 -  5) =     -6.51144  eV     1   --> A              
     e(  6 -  6) =     -4.70447  eV     1   --> A              
     e(  7 -  7) =     -4.51864  eV     1   --> A              
     e(  8 -  8) =     -4.30346  eV     1   --> A              
     e(  9 -  9) =     -3.01253  eV     1   --> A              
     e( 10 - 10) =     -1.27015  eV     1   --> A              
     e( 11 - 11) =     -1.14922  eV     1   --> A              
     e( 12 - 12) =     -1.08094  eV     1   --> A              

 **************************************************************************

 **************************************************************************

                    xk=(   0.31108,   0.57730,   0.00000  )

     Band symmetry, C_1 (1)     point group:

     e(  1 -  1) =    -12.91191  eV     1   --> A              
     e(  2 -  2) =    -12.16084  eV     1   --> A              
     e(  3 -  3) =     -9.41818  eV     1   --> A              
     e(  4 -  4) =     -6.87802  eV     1   --> A              
     e(  5 -  5) =     -6.53263  eV     1   --> A              
     e(  6 -  6) =     -4.68726  eV     1   --> A              
     e(  7 -  7) =     -4.53356  eV     1   --> A              
     e(  8 -  8) =     -4.30373  eV     1   --> A              
     e(  9 -  9) =     -3.01718  eV     1   --> A              
     e( 10 - 10) =     -1.25910  eV     1   --> A              
     e( 11 - 11) =     -1.11299  eV     1   --> A              
     e( 12 - 12) =     -1.05879  eV     1   --> A              

 **************************************************************************

 **************************************************************************

                    xk=(   0.32219,   0.57729,   0.00000  )

     Band symmetry, C_1 (1)     point group:

     e(  1 -  1) =    -12.91022  eV     1   --> A              
     e(  2 -  2) =    -12.16315  eV     1   --> A              
     e(  3 -  3) =     -9.41906  eV     1   --> A              
     e(  4 -  4) =     -6.86281  eV     1   --> A              
     e(  5 -  5) =     -6.54679  eV     1   --> A              
     e(  6 -  6) =     -4.67495  eV     1   --> A              
     e(  7 -  7) =     -4.54439  eV     1   --> A              
     e(  8 -  8) =     -4.30393  eV     1   --> A              
     e(  9 -  9) =     -3.02001  eV     1   --> A              
     e( 10 - 10) =     -1.25287  eV     1   --> A              
     e( 11 - 11) =     -1.07689  eV     1   --> A              
     e( 12 - 12) =     -1.03438  eV     1   --> A              

 **************************************************************************

 **************************************************************************

                    xk=(   0.33330,   0.57729,   0.00000  )

     Band symmetry, C_1 (1)     point group:

     e(  1 -  1) =    -12.90967  eV     1   --> A              
     e(  2 -  2) =    -12.16391  eV     1   --> A              
     e(  3 -  3) =     -9.41938  eV     1   --> A              
     e(  4 -  4) =     -6.85751  eV     1   --> A              
     e(  5 -  5) =     -6.55173  eV     1   --> A              
     e(  6 -  6) =     -4.67042  eV     1   --> A              
     e(  7 -  7) =     -4.54838  eV     1   --> A              
     e(  8 -  8) =     -4.30400  eV     1   --> A              
     e(  9 -  9) =     -3.02098  eV     1   --> A              
     e( 10 - 10) =     -1.25076  eV     1   --> A              
     e( 11 - 11) =     -1.05246  eV     1   --> A              
     e( 12 - 12) =     -1.01558  eV     1   --> A              

 **************************************************************************

 **************************************************************************

                    xk=(   0.32219,   0.55805,   0.00000  )

     Band symmetry, C_1 (1)     point group:

     e(  1 -  1) =    -12.91205  eV     1   --> A              
     e(  2 -  2) =    -12.16066  eV     1   --> A              
     e(  3 -  3) =     -9.41813  eV     1   --> A              
     e(  4 -  4) =     -6.87789  eV     1   --> A              
     e(  5 -  5) =     -6.53288  eV     1   --> A              
     e(  6 -  6) =     -4.68703  eV     1   --> A              
     e(  7 -  7) =     -4.53431  eV     1   --> A              
     e(  8 -  8) =     -4.30363  eV     1   --> A              
     e(  9 -  9) =     -3.01701  eV     1   --> A              
     e( 10 - 10) =     -1.26312  eV     1   --> A              
     e( 11 - 11) =     -1.14813  eV     1   --> A              
     e( 12 - 12) =     -0.97296  eV     1   --> A              

 **************************************************************************

 **************************************************************************

                    xk=(   0.31108,   0.53881,   0.00000  )

     Band symmetry, C_1 (1)     point group:

     e(  1 -  1) =    -12.91971  eV     1   --> A              
     e(  2 -  2) =    -12.15000  eV     1   --> A              
     e(  3 -  3) =     -9.41474  eV     1   --> A              
     e(  4 -  4) =     -6.92944  eV     1   --> A              
     e(  5 -  5) =     -6.48615  eV     1   --> A              
     e(  6 -  6) =     -4.72429  eV     1   --> A              
     e(  7 -  7) =     -4.50569  eV     1   --> A              
     e(  8 -  8) =     -4.30205  eV     1   --> A              
     e(  9 -  9) =     -3.00492  eV     1   --> A              
     e( 10 - 10) =     -1.32896  eV     1   --> A              
     e( 11 - 11) =     -1.21497  eV     1   --> A              
     e( 12 - 12) =     -0.91829  eV     1   --> A              

 **************************************************************************

 **************************************************************************

                    xk=(   0.29997,   0.51956,   0.00000  )

     Band symmetry, C_1 (1)     point group:

     e(  1 -  1) =    -12.93272  eV     1   --> A              
     e(  2 -  2) =    -12.13163  eV     1   --> A              
     e(  3 -  3) =     -9.40932  eV     1   --> A              
     e(  4 -  4) =     -6.99683  eV     1   --> A              
     e(  5 -  5) =     -6.42719  eV     1   --> A              
     e(  6 -  6) =     -4.76896  eV     1   --> A              
     e(  7 -  7) =     -4.47729  eV     1   --> A              
     e(  8 -  8) =     -4.29916  eV     1   --> A              
     e(  9 -  9) =     -2.98420  eV     1   --> A              
     e( 10 - 10) =     -1.43382  eV     1   --> A              
     e( 11 - 11) =     -1.23835  eV     1   --> A              
     e( 12 - 12) =     -0.86371  eV     1   --> A              

 **************************************************************************

 **************************************************************************

                    xk=(   0.28886,   0.50032,   0.00000  )

     Band symmetry, C_1 (1)     point group:

     e(  1 -  1) =    -12.95076  eV     1   --> A              
     e(  2 -  2) =    -12.10564  eV     1   --> A              
     e(  3 -  3) =     -9.40202  eV     1   --> A              
     e(  4 -  4) =     -7.07202  eV     1   --> A              
     e(  5 -  5) =     -6.36433  eV     1   --> A              
     e(  6 -  6) =     -4.81654  eV     1   --> A              
     e(  7 -  7) =     -4.45444  eV     1   --> A              
     e(  8 -  8) =     -4.29562  eV     1   --> A              
     e(  9 -  9) =     -2.95448  eV     1   --> A              
     e( 10 - 10) =     -1.53572  eV     1   --> A              
     e( 11 - 11) =     -1.25652  eV     1   --> A              
     e( 12 - 12) =     -0.80930  eV     1   --> A              

 **************************************************************************

 **************************************************************************

                    xk=(   0.27775,   0.48108,   0.00000  )

     Band symmetry, C_1 (1)     point group:

     e(  1 -  1) =    -12.97323  eV     1   --> A              
     e(  2 -  2) =    -12.07242  eV     1   --> A              
     e(  3 -  3) =     -9.39297  eV     1   --> A              
     e(  4 -  4) =     -7.15152  eV     1   --> A              
     e(  5 -  5) =     -6.30130  eV     1   --> A              
     e(  6 -  6) =     -4.86533  eV     1   --> A              
     e(  7 -  7) =     -4.43871  eV     1   --> A              
     e(  8 -  8) =     -4.29285  eV     1   --> A              
     e(  9 -  9) =     -2.91564  eV     1   --> A              
     e( 10 - 10) =     -1.62520  eV     1   --> A              
     e( 11 - 11) =     -1.27611  eV     1   --> A              
     e( 12 - 12) =     -0.75576  eV     1   --> A              

 **************************************************************************

 **************************************************************************

                    xk=(   0.26664,   0.46183,   0.00000  )

     Band symmetry, C_1 (1)     point group:

     e(  1 -  1) =    -12.99940  eV     1   --> A              
     e(  2 -  2) =    -12.03253  eV     1   --> A              
     e(  3 -  3) =     -9.38236  eV     1   --> A              
     e(  4 -  4) =     -7.23372  eV     1   --> A              
     e(  5 -  5) =     -6.23991  eV     1   --> A              
     e(  6 -  6) =     -4.91449  eV     1   --> A              
     e(  7 -  7) =     -4.43070  eV     1   --> A              
     e(  8 -  8) =     -4.29204  eV     1   --> A              
     e(  9 -  9) =     -2.86823  eV     1   --> A              
     e( 10 - 10) =     -1.69903  eV     1   --> A              
     e( 11 - 11) =     -1.29788  eV     1   --> A              
     e( 12 - 12) =     -0.70403  eV     1   --> A              

 **************************************************************************

 **************************************************************************

                    xk=(   0.25553,   0.44259,   0.00000  )

     Band symmetry, C_1 (1)     point group:

     e(  1 -  1) =    -13.02846  eV     1   --> A              
     e(  2 -  2) =    -11.98660  eV     1   --> A              
     e(  3 -  3) =     -9.37036  eV     1   --> A              
     e(  4 -  4) =     -7.31782  eV     1   --> A              
     e(  5 -  5) =     -6.18114  eV     1   --> A              
     e(  6 -  6) =     -4.96348  eV     1   --> A              
     e(  7 -  7) =     -4.43188  eV     1   --> A              
     e(  8 -  8) =     -4.29244  eV     1   --> A              
     e(  9 -  9) =     -2.81369  eV     1   --> A              
     e( 10 - 10) =     -1.75526  eV     1   --> A              
     e( 11 - 11) =     -1.32150  eV     1   --> A              
     e( 12 - 12) =     -0.65521  eV     1   --> A              

 **************************************************************************

 **************************************************************************

                    xk=(   0.24442,   0.42335,   0.00000  )

     Band symmetry, C_1 (1)     point group:

     e(  1 -  1) =    -13.05967  eV     1   --> A              
     e(  2 -  2) =    -11.93524  eV     1   --> A              
     e(  3 -  3) =     -9.35717  eV     1   --> A              
     e(  4 -  4) =     -7.40337  eV     1   --> A              
     e(  5 -  5) =     -6.12555  eV     1   --> A              
     e(  6 -  6) =     -5.01188  eV     1   --> A              
     e(  7 -  7) =     -4.44527  eV     1   --> A              
     e(  8 -  8) =     -4.29080  eV     1   --> A              
     e(  9 -  9) =     -2.75449  eV     1   --> A              
     e( 10 - 10) =     -1.79250  eV     1   --> A              
     e( 11 - 11) =     -1.34611  eV     1   --> A              
     e( 12 - 12) =     -0.61042  eV     1   --> A              

 **************************************************************************

 **************************************************************************

                    xk=(   0.23331,   0.40410,   0.00000  )

     Band symmetry, C_1 (1)     point group:

     e(  1 -  1) =    -13.09234  eV     1   --> A              
     e(  2 -  2) =    -11.87904  eV     1   --> A              
     e(  3 -  3) =     -9.34296  eV     1   --> A              
     e(  4 -  4) =     -7.49009  eV     1   --> A              
     e(  5 -  5) =     -6.07348  eV     1   --> A              
     e(  6 -  6) =     -5.05938  eV     1   --> A              
     e(  7 -  7) =     -4.47331  eV     1   --> A              
     e(  8 -  8) =     -4.28359  eV     1   --> A              
     e(  9 -  9) =     -2.69396  eV     1   --> A              
     e( 10 - 10) =     -1.81018  eV     1   --> A              
     e( 11 - 11) =     -1.37029  eV     1   --> A              
     e( 12 - 12) =     -0.57081  eV     1   --> A              

 **************************************************************************

 **************************************************************************

                    xk=(   0.22220,   0.38486,   0.00000  )

     Band symmetry, C_1 (1)     point group:

     e(  1 -  1) =    -13.12586  eV     1   --> A              
     e(  2 -  2) =    -11.81851  eV     1   --> A              
     e(  3 -  3) =     -9.32793  eV     1   --> A              
     e(  4 -  4) =     -7.57785  eV     1   --> A              
     e(  5 -  5) =     -6.02507  eV     1   --> A              
     e(  6 -  6) =     -5.10568  eV     1   --> A              
     e(  7 -  7) =     -4.51554  eV     1   --> A              
     e(  8 -  8) =     -4.26953  eV     1   --> A              
     e(  9 -  9) =     -2.63582  eV     1   --> A              
     e( 10 - 10) =     -1.80930  eV     1   --> A              
     e( 11 - 11) =     -1.39161  eV     1   --> A              
     e( 12 - 12) =     -0.53728  eV     1   --> A              

 **************************************************************************

 **************************************************************************

                    xk=(   0.21109,   0.36562,   0.00000  )

     Band symmetry, C_1 (1)     point group:

     e(  1 -  1) =    -13.15974  eV     1   --> A              
     e(  2 -  2) =    -11.75410  eV     1   --> A              
     e(  3 -  3) =     -9.31229  eV     1   --> A              
     e(  4 -  4) =     -7.66654  eV     1   --> A              
     e(  5 -  5) =     -5.98042  eV     1   --> A              
     e(  6 -  6) =     -5.15053  eV     1   --> A              
     e(  7 -  7) =     -4.56945  eV     1   --> A              
     e(  8 -  8) =     -4.24912  eV     1   --> A              
     e(  9 -  9) =     -2.58331  eV     1   --> A              
     e( 10 - 10) =     -1.79397  eV     1   --> A              
     e( 11 - 11) =     -1.40587  eV     1   --> A              
     e( 12 - 12) =     -0.51022  eV     1   --> A              

 **************************************************************************

 **************************************************************************

                    xk=(   0.19998,   0.34638,   0.00000  )

     Band symmetry, C_1 (1)     point group:

     e(  1 -  1) =    -13.19353  eV     1   --> A              
     e(  2 -  2) =    -11.68622  eV     1   --> A              
     e(  3 -  3) =     -9.29619  eV     1   --> A              
     e(  4 -  4) =     -7.75607  eV     1   --> A              
     e(  5 -  5) =     -5.93950  eV     1   --> A              
     e(  6 -  6) =     -5.19370  eV     1   --> A              
     e(  7 -  7) =     -4.63211  eV     1   --> A              
     e(  8 -  8) =     -4.22314  eV     1   --> A              
     e(  9 -  9) =     -2.53823  eV     1   --> A              
     e( 10 - 10) =     -1.77301  eV     1   --> A              
     e( 11 - 11) =     -1.40618  eV     1   --> A              
     e( 12 - 12) =     -0.48902  eV     1   --> A              

 **************************************************************************

 **************************************************************************

                    xk=(   0.18887,   0.32713,   0.00000  )

     Band symmetry, C_1 (1)     point group:

     e(  1 -  1) =    -13.22687  eV     1   --> A              
     e(  2 -  2) =    -11.61524  eV     1   --> A              
     e(  3 -  3) =     -9.27985  eV     1   --> A              
     e(  4 -  4) =     -7.84639  eV     1   --> A              
     e(  5 -  5) =     -5.90224  eV     1   --> A              
     e(  6 -  6) =     -5.23497  eV     1   --> A              
     e(  7 -  7) =     -4.70084  eV     1   --> A              
     e(  8 -  8) =     -4.19226  eV     1   --> A              
     e(  9 -  9) =     -2.50076  eV     1   --> A              
     e( 10 - 10) =     -1.75896  eV     1   --> A              
     e( 11 - 11) =     -1.38452  eV     1   --> A              
     e( 12 - 12) =     -0.47159  eV     1   --> A              

 **************************************************************************

 **************************************************************************

                    xk=(   0.17776,   0.30789,   0.00000  )

     Band symmetry, C_1 (1)     point group:

     e(  1 -  1) =    -13.25944  eV     1   --> A              
     e(  2 -  2) =    -11.54153  eV     1   --> A              
     e(  3 -  3) =     -9.26342  eV     1   --> A              
     e(  4 -  4) =     -7.93740  eV     1   --> A              
     e(  5 -  5) =     -5.86854  eV     1   --> A              
     e(  6 -  6) =     -5.27413  eV     1   --> A              
     e(  7 -  7) =     -4.77333  eV     1   --> A              
     e(  8 -  8) =     -4.15702  eV     1   --> A              
     e(  9 -  9) =     -2.46985  eV     1   --> A              
     e( 10 - 10) =     -1.76089  eV     1   --> A              
     e( 11 - 11) =     -1.33866  eV     1   --> A              
     e( 12 - 12) =     -0.45380  eV     1   --> A              

 **************************************************************************

 **************************************************************************

                    xk=(   0.16665,   0.28865,   0.00000  )

     Band symmetry, C_1 (1)     point group:

     e(  1 -  1) =    -13.29099  eV     1   --> A              
     e(  2 -  2) =    -11.46542  eV     1   --> A              
     e(  3 -  3) =     -9.24710  eV     1   --> A              
     e(  4 -  4) =     -8.02901  eV     1   --> A              
     e(  5 -  5) =     -5.83831  eV     1   --> A              
     e(  6 -  6) =     -5.31097  eV     1   --> A              
     e(  7 -  7) =     -4.84759  eV     1   --> A              
     e(  8 -  8) =     -4.11791  eV     1   --> A              
     e(  9 -  9) =     -2.44402  eV     1   --> A              
     e( 10 - 10) =     -1.77887  eV     1   --> A              
     e( 11 - 11) =     -1.27728  eV     1   --> A              
     e( 12 - 12) =     -0.42926  eV     1   --> A              

 **************************************************************************

 **************************************************************************

                    xk=(   0.15554,   0.26940,   0.00000  )

     Band symmetry, C_1 (1)     point group:

     e(  1 -  1) =    -13.32128  eV     1   --> A              
     e(  2 -  2) =    -11.38726  eV     1   --> A              
     e(  3 -  3) =     -9.23103  eV     1   --> A              
     e(  4 -  4) =     -8.12109  eV     1   --> A              
     e(  5 -  5) =     -5.81143  eV     1   --> A              
     e(  6 -  6) =     -5.34527  eV     1   --> A              
     e(  7 -  7) =     -4.92196  eV     1   --> A              
     e(  8 -  8) =     -4.07544  eV     1   --> A              
     e(  9 -  9) =     -2.42192  eV     1   --> A              
     e( 10 - 10) =     -1.80832  eV     1   --> A              
     e( 11 - 11) =     -1.21492  eV     1   --> A              
     e( 12 - 12) =     -0.38954  eV     1   --> A              

 **************************************************************************

 **************************************************************************

                    xk=(   0.14443,   0.25016,   0.00000  )

     Band symmetry, C_1 (1)     point group:

     e(  1 -  1) =    -13.35013  eV     1   --> A              
     e(  2 -  2) =    -11.30743  eV     1   --> A              
     e(  3 -  3) =     -9.21539  eV     1   --> A              
     e(  4 -  4) =     -8.21344  eV     1   --> A              
     e(  5 -  5) =     -5.78784  eV     1   --> A              
     e(  6 -  6) =     -5.37678  eV     1   --> A              
     e(  7 -  7) =     -4.99504  eV     1   --> A              
     e(  8 -  8) =     -4.03016  eV     1   --> A              
     e(  9 -  9) =     -2.40253  eV     1   --> A              
     e( 10 - 10) =     -1.84503  eV     1   --> A              
     e( 11 - 11) =     -1.16491  eV     1   --> A              
     e( 12 - 12) =     -0.32638  eV     1   --> A              

 **************************************************************************

 **************************************************************************

                    xk=(   0.13332,   0.23092,   0.00000  )

     Band symmetry, C_1 (1)     point group:

     e(  1 -  1) =    -13.37737  eV     1   --> A              
     e(  2 -  2) =    -11.22634  eV     1   --> A              
     e(  3 -  3) =     -9.20031  eV     1   --> A              
     e(  4 -  4) =     -8.30580  eV     1   --> A              
     e(  5 -  5) =     -5.76752  eV     1   --> A              
     e(  6 -  6) =     -5.40525  eV     1   --> A              
     e(  7 -  7) =     -5.06566  eV     1   --> A              
     e(  8 -  8) =     -3.98264  eV     1   --> A              
     e(  9 -  9) =     -2.38518  eV     1   --> A              
     e( 10 - 10) =     -1.88623  eV     1   --> A              
     e( 11 - 11) =     -1.13473  eV     1   --> A              
     e( 12 - 12) =     -0.23547  eV     1   --> A              

 **************************************************************************

 **************************************************************************

                    xk=(   0.12221,   0.21167,   0.00000  )

     Band symmetry, C_1 (1)     point group:

     e(  1 -  1) =    -13.40286  eV     1   --> A              
     e(  2 -  2) =    -11.14446  eV     1   --> A              
     e(  3 -  3) =     -9.18594  eV     1   --> A              
     e(  4 -  4) =     -8.39785  eV     1   --> A              
     e(  5 -  5) =     -5.75053  eV     1   --> A              
     e(  6 -  6) =     -5.43038  eV     1   --> A              
     e(  7 -  7) =     -5.13285  eV     1   --> A              
     e(  8 -  8) =     -3.93354  eV     1   --> A              
     e(  9 -  9) =     -2.36947  eV     1   --> A              
     e( 10 - 10) =     -1.93013  eV     1   --> A              
     e( 11 - 11) =     -1.12474  eV     1   --> A              
     e( 12 - 12) =     -0.11854  eV     1   --> A              

 **************************************************************************

 **************************************************************************

                    xk=(   0.11110,   0.19243,   0.00000  )

     Band symmetry, C_1 (1)     point group:

     e(  1 -  1) =    -13.42647  eV     1   --> A              
     e(  2 -  2) =    -11.06234  eV     1   --> A              
     e(  3 -  3) =     -9.17240  eV     1   --> A              
     e(  4 -  4) =     -8.48911  eV     1   --> A              
     e(  5 -  5) =     -5.73694  eV     1   --> A              
     e(  6 -  6) =     -5.45190  eV     1   --> A              
     e(  7 -  7) =     -5.19581  eV     1   --> A              
     e(  8 -  8) =     -3.88356  eV     1   --> A              
     e(  9 -  9) =     -2.35519  eV     1   --> A              
     e( 10 - 10) =     -1.97546  eV     1   --> A              
     e( 11 - 11) =     -1.13062  eV     1   --> A              
     e( 12 - 12) =      0.01837  eV     1   --> A              

 **************************************************************************

 **************************************************************************

                    xk=(   0.09999,   0.17319,   0.00000  )

     Band symmetry, C_1 (1)     point group:

     e(  1 -  1) =    -13.44812  eV     1   --> A              
     e(  2 -  2) =    -10.98064  eV     1   --> A              
     e(  3 -  3) =     -9.15980  eV     1   --> A              
     e(  4 -  4) =     -8.57902  eV     1   --> A              
     e(  5 -  5) =     -5.72686  eV     1   --> A              
     e(  6 -  6) =     -5.46956  eV     1   --> A              
     e(  7 -  7) =     -5.25391  eV     1   --> A              
     e(  8 -  8) =     -3.83347  eV     1   --> A              
     e(  9 -  9) =     -2.34222  eV     1   --> A              
     e( 10 - 10) =     -2.02122  eV     1   --> A              
     e( 11 - 11) =     -1.14699  eV     1   --> A              
     e( 12 - 12) =      0.16801  eV     1   --> A              

 **************************************************************************

 **************************************************************************

                    xk=(   0.08888,   0.15394,   0.00000  )

     Band symmetry, C_1 (1)     point group:

     e(  1 -  1) =    -13.46769  eV     1   --> A              
     e(  2 -  2) =    -10.90018  eV     1   --> A              
     e(  3 -  3) =     -9.14826  eV     1   --> A              
     e(  4 -  4) =     -8.66679  eV     1   --> A              
     e(  5 -  5) =     -5.72028  eV     1   --> A              
     e(  6 -  6) =     -5.48325  eV     1   --> A              
     e(  7 -  7) =     -5.30663  eV     1   --> A              
     e(  8 -  8) =     -3.78413  eV     1   --> A              
     e(  9 -  9) =     -2.33053  eV     1   --> A              
     e( 10 - 10) =     -2.06649  eV     1   --> A              
     e( 11 - 11) =     -1.16931  eV     1   --> A              
     e( 12 - 12) =      0.32305  eV     1   --> A              

 **************************************************************************

 **************************************************************************

                    xk=(   0.07777,   0.13470,   0.00000  )

     Band symmetry, C_1 (1)     point group:

     e(  1 -  1) =    -13.48513  eV     1   --> A              
     e(  2 -  2) =    -10.82199  eV     1   --> A              
     e(  3 -  3) =     -9.13786  eV     1   --> A              
     e(  4 -  4) =     -8.75144  eV     1   --> A              
     e(  5 -  5) =     -5.71700  eV     1   --> A              
     e(  6 -  6) =     -5.49310  eV     1   --> A              
     e(  7 -  7) =     -5.35357  eV     1   --> A              
     e(  8 -  8) =     -3.73646  eV     1   --> A              
     e(  9 -  9) =     -2.32014  eV     1   --> A              
     e( 10 - 10) =     -2.11033  eV     1   --> A              
     e( 11 - 11) =     -1.19416  eV     1   --> A              
     e( 12 - 12) =      0.47602  eV     1   --> A              

 **************************************************************************

 **************************************************************************

                    xk=(   0.06666,   0.11546,   0.00000  )

     Band symmetry, C_1 (1)     point group:

     e(  1 -  1) =    -13.50037  eV     1   --> A              
     e(  2 -  2) =    -10.74735  eV     1   --> A              
     e(  3 -  3) =     -9.12869  eV     1   --> A              
     e(  4 -  4) =     -8.83171  eV     1   --> A              
     e(  5 -  5) =     -5.71652  eV     1   --> A              
     e(  6 -  6) =     -5.49951  eV     1   --> A              
     e(  7 -  7) =     -5.39446  eV     1   --> A              
     e(  8 -  8) =     -3.69150  eV     1   --> A              
     e(  9 -  9) =     -2.31106  eV     1   --> A              
     e( 10 - 10) =     -2.15177  eV     1   --> A              
     e( 11 - 11) =     -1.21909  eV     1   --> A              
     e( 12 - 12) =      0.61783  eV     1   --> A              

 **************************************************************************

 **************************************************************************

                    xk=(   0.05555,   0.09622,   0.00000  )

     Band symmetry, C_1 (1)     point group:

     e(  1 -  1) =    -13.51334  eV     1   --> A              
     e(  2 -  2) =    -10.67789  eV     1   --> A              
     e(  3 -  3) =     -9.12081  eV     1   --> A              
     e(  4 -  4) =     -8.90595  eV     1   --> A              
     e(  5 -  5) =     -5.71812  eV     1   --> A              
     e(  6 -  6) =     -5.50317  eV     1   --> A              
     e(  7 -  7) =     -5.42910  eV     1   --> A              
     e(  8 -  8) =     -3.65038  eV     1   --> A              
     e(  9 -  9) =     -2.30332  eV     1   --> A              
     e( 10 - 10) =     -2.18975  eV     1   --> A              
     e( 11 - 11) =     -1.24241  eV     1   --> A              
     e( 12 - 12) =      0.73471  eV     1   --> A              

 **************************************************************************

 **************************************************************************

                    xk=(   0.04444,   0.07697,   0.00000  )

     Band symmetry, C_1 (1)     point group:

     e(  1 -  1) =    -13.52402  eV     1   --> A              
     e(  2 -  2) =    -10.61563  eV     1   --> A              
     e(  3 -  3) =     -9.11429  eV     1   --> A              
     e(  4 -  4) =     -8.97215  eV     1   --> A              
     e(  5 -  5) =     -5.72094  eV     1   --> A              
     e(  6 -  6) =     -5.50486  eV     1   --> A              
     e(  7 -  7) =     -5.45739  eV     1   --> A              
     e(  8 -  8) =     -3.61432  eV     1   --> A              
     e(  9 -  9) =     -2.29695  eV     1   --> A              
     e( 10 - 10) =     -2.22313  eV     1   --> A              
     e( 11 - 11) =     -1.26284  eV     1   --> A              
     e( 12 - 12) =      0.80591  eV     1   --> A              

 **************************************************************************

 **************************************************************************

                    xk=(   0.03333,   0.05773,   0.00000  )

     Band symmetry, C_1 (1)     point group:

     e(  1 -  1) =    -13.53236  eV     1   --> A              
     e(  2 -  2) =    -10.56298  eV     1   --> A              
     e(  3 -  3) =     -9.10917  eV     1   --> A              
     e(  4 -  4) =     -9.02788  eV     1   --> A              
     e(  5 -  5) =     -5.72412  eV     1   --> A              
     e(  6 -  6) =     -5.50534  eV     1   --> A              
     e(  7 -  7) =     -5.47932  eV     1   --> A              
     e(  8 -  8) =     -3.58452  eV     1   --> A              
     e(  9 -  9) =     -2.29197  eV     1   --> A              
     e( 10 - 10) =     -2.25074  eV     1   --> A              
     e( 11 - 11) =     -1.27953  eV     1   --> A              
     e( 12 - 12) =      0.82826  eV     1   --> A              

 **************************************************************************

 **************************************************************************

                    xk=(   0.02222,   0.03849,   0.00000  )

     Band symmetry, C_1 (1)     point group:

     e(  1 -  1) =    -13.53833  eV     1   --> A              
     e(  2 -  2) =    -10.52261  eV     1   --> A              
     e(  3 -  3) =     -9.10549  eV     1   --> A              
     e(  4 -  4) =     -9.07046  eV     1   --> A              
     e(  5 -  5) =     -5.72694  eV     1   --> A              
     e(  6 -  6) =     -5.50523  eV     1   --> A              
     e(  7 -  7) =     -5.49491  eV     1   --> A              
     e(  8 -  8) =     -3.56220  eV     1   --> A              
     e(  9 -  9) =     -2.28840  eV     1   --> A              
     e( 10 - 10) =     -2.27146  eV     1   --> A              
     e( 11 - 11) =     -1.29185  eV     1   --> A              
     e( 12 - 12) =      0.82971  eV     1   --> A              

 **************************************************************************

 **************************************************************************

                    xk=(   0.01111,   0.01924,   0.00000  )

     Band symmetry, C_1 (1)     point group:

     e(  1 -  1) =    -13.54193  eV     1   --> A              
     e(  2 -  2) =    -10.49708  eV     1   --> A              
     e(  3 -  3) =     -9.10327  eV     1   --> A              
     e(  4 -  4) =     -9.09732  eV     1   --> A              
     e(  5 -  5) =     -5.72886  eV     1   --> A              
     e(  6 -  6) =     -5.50499  eV     1   --> A              
     e(  7 -  7) =     -5.50422  eV     1   --> A              
     e(  8 -  8) =     -3.54835  eV     1   --> A              
     e(  9 -  9) =     -2.28625  eV     1   --> A              
     e( 10 - 10) =     -2.28433  eV     1   --> A              
     e( 11 - 11) =     -1.29939  eV     1   --> A              
     e( 12 - 12) =      0.82724  eV     1   --> A              

 **************************************************************************

 **************************************************************************

                    xk=(   0.00000,   0.00000,   0.00000  )

     point group C_s (m)    
     there are  2 classes
     the character table:

       E     s    
A'     1.00  1.00
A''    1.00 -1.00

     the symmetry operations in each class and the name of the first element:

     E        1
                                                                 
     s        2
                                                                 

     Band symmetry, C_s (m)     point group:

     e(  1 -  1) =    -13.54313  eV     1   --> A'             
     e(  2 -  2) =    -10.48832  eV     1   --> A'             
     e(  3 -  3) =     -9.10653  eV     1   --> A''            
     e(  4 -  4) =     -9.10251  eV     1   --> A'             
     e(  5 -  5) =     -5.72954  eV     1   --> A'             
     e(  6 -  6) =     -5.50733  eV     1   --> A'             
     e(  7 -  7) =     -5.50486  eV     1   --> A''            
     e(  8 -  8) =     -3.54365  eV     1   --> A'             
     e(  9 -  9) =     -2.28870  eV     1   --> A''            
     e( 10 - 10) =     -2.28553  eV     1   --> A'             
     e( 11 - 11) =     -1.30191  eV     1   --> A'             
     e( 12 - 12) =      0.82604  eV     1   --> A'             

 **************************************************************************

     BANDS        :     44.66s CPU     43.48s WALL


   This run was terminated on:  21: 0:30   9Jan2025            

=------------------------------------------------------------------------------=
   JOB DONE.
=------------------------------------------------------------------------------=
