
     Program PWSCF v.6.4.1 starts on  9Jan2025 at 20: 6:32 

     This program is part of the open-source Quantum ESPRESSO suite
     for quantum simulation of materials; please cite
         "P. Giannozzi et al., J. Phys.:Condens. Matter 21 395502 (2009);
         "P. Giannozzi et al., J. Phys.:Condens. Matter 29 465901 (2017);
          URL http://www.quantum-espresso.org", 
     in publications or presentations arising from this work. More details at
     http://www.quantum-espresso.org/quote

     Parallel version (MPI), running on     1 processors

     MPI processes distributed on     1 nodes
     Waiting for input...
     Reading input from standard input

     Current dimensions of program PWSCF are:
     Max number of different atomic species (ntypx) = 10
     Max number of k-points (npk) =  40000
     Max angular momentum in pseudopotentials (lmaxx) =  3

     Atomic positions and unit cell read from directory:
     ./out/aiida.save/


     Subspace diagonalization in iterative solution of the eigenvalue problem:
     a serial algorithm will be used

     Message from routine setup:
     DEPRECATED: symmetry with ibrav=0, use correct ibrav instead

     G-vector sticks info
     --------------------
     sticks:   dense  smooth     PW     G-vecs:    dense   smooth      PW
     Sum        2275    1147    313               283153   100205   15071



     bravais-lattice index     =            0
     lattice parameter (alat)  =      11.7418  a.u.
     unit-cell volume          =    4512.6428 (a.u.)^3
     number of atoms/cell      =            4
     number of atomic types    =            1
     number of electrons       =        16.00
     number of Kohn-Sham states=           12
     kinetic-energy cutoff     =      30.0000  Ry
     charge density cutoff     =     240.0000  Ry
     Exchange-correlation      = PBE ( 1  4  3  4 0 0)

     celldm(1)=  11.741828  celldm(2)=   0.000000  celldm(3)=   0.000000
     celldm(4)=   0.000000  celldm(5)=   0.000000  celldm(6)=   0.000000

     crystal axes: (cart. coord. in units of alat)
               a(1) = (   1.000000   0.000000   0.000000 )  
               a(2) = (  -0.500000   0.866025   0.000000 )  
               a(3) = (   0.000000   0.000000   3.218794 )  

     reciprocal axes: (cart. coord. in units 2 pi/alat)
               b(1) = (  1.000000  0.577350 -0.000000 )  
               b(2) = (  0.000000  1.154701  0.000000 )  
               b(3) = (  0.000000 -0.000000  0.310675 )  


     PseudoPot. # 1 for Si read from file:
     ../../pseudo/Si.pbe.upf
     MD5 check sum: 3f156eda2279325da2083dedf8f436a5
     Pseudo is Norm-conserving + core correction, Zval =  4.0
     Generated using ONCVPSP code by D. R. Hamann
     Using radial grid of 1510 points,  6 beta functions with: 
                l(1) =   0
                l(2) =   0
                l(3) =   1
                l(4) =   1
                l(5) =   2
                l(6) =   2

     atomic species   valence    mass     pseudopotential
        Si             4.00    28.08550     Si( 1.00)

      2 Sym. Ops. (no inversion) found


                                    s                        frac. trans.

      isym =  1     identity                                     

 cryst.   s( 1) = (     1          0          0      )
                  (     0          1          0      )
                  (     0          0          1      )

 cart.    s( 1) = (  1.0000000  0.0000000  0.0000000 )
                  (  0.0000000  1.0000000  0.0000000 )
                  (  0.0000000  0.0000000  1.0000000 )


      isym =  2     inv. 180 deg rotation - cryst. axis [1,1,0]  

 cryst.   s( 2) = (     0         -1          0      )
                  (    -1          0          0      )
                  (     0          0          1      )

 cart.    s( 2) = (  0.5000000 -0.8660254  0.0000000 )
                  ( -0.8660254 -0.5000000  0.0000000 )
                  (  0.0000000  0.0000000  1.0000000 )


   Cartesian axes

     site n.     atom                  positions (alat units)
         1           Si  tau(   1) = (   0.2500000   0.4330127   1.6093968  )
         2           Si  tau(   2) = (   0.4420000   0.1004589   1.6093968  )
         3           Si  tau(   3) = (   0.6340000   0.4330127   1.6093968  )
         4           Si  tau(   4) = (  -0.0582500   0.6109809   1.7767741  )

   Crystallographic axes

     site n.     atom                  positions (cryst. coord.)
         1           Si  tau(   1) = (  0.5000000  0.5000000  0.5000000  )
         2           Si  tau(   2) = (  0.5000000  0.1160000  0.5000000  )
         3           Si  tau(   3) = (  0.8840000  0.5000000  0.5000000  )
         4           Si  tau(   4) = (  0.2945000  0.7055000  0.5520000  )

     number of k points=    91  Marzari-Vanderbilt smearing, width (Ry)=  0.0200
                       cart. coord. in units 2pi/alat
        k(    1) = (   0.0000000   0.0000000   0.0000000), wk =   0.0219780
        k(    2) = (   0.0000000   0.0192450   0.0000000), wk =   0.0219780
        k(    3) = (   0.0000000   0.0384900   0.0000000), wk =   0.0219780
        k(    4) = (   0.0000000   0.0577350   0.0000000), wk =   0.0219780
        k(    5) = (   0.0000000   0.0769800   0.0000000), wk =   0.0219780
        k(    6) = (   0.0000000   0.0962250   0.0000000), wk =   0.0219780
        k(    7) = (   0.0000000   0.1154701   0.0000000), wk =   0.0219780
        k(    8) = (   0.0000000   0.1347151   0.0000000), wk =   0.0219780
        k(    9) = (   0.0000000   0.1539601   0.0000000), wk =   0.0219780
        k(   10) = (   0.0000000   0.1732051   0.0000000), wk =   0.0219780
        k(   11) = (   0.0000000   0.1924501   0.0000000), wk =   0.0219780
        k(   12) = (   0.0000000   0.2116951   0.0000000), wk =   0.0219780
        k(   13) = (   0.0000000   0.2309401   0.0000000), wk =   0.0219780
        k(   14) = (   0.0000000   0.2501851   0.0000000), wk =   0.0219780
        k(   15) = (   0.0000000   0.2694301   0.0000000), wk =   0.0219780
        k(   16) = (   0.0000000   0.2886751   0.0000000), wk =   0.0219780
        k(   17) = (   0.0000000   0.3079201   0.0000000), wk =   0.0219780
        k(   18) = (   0.0000000   0.3271652   0.0000000), wk =   0.0219780
        k(   19) = (   0.0000000   0.3464102   0.0000000), wk =   0.0219780
        k(   20) = (   0.0000000   0.3656552   0.0000000), wk =   0.0219780
        k(   21) = (   0.0000000   0.3849002   0.0000000), wk =   0.0219780
        k(   22) = (   0.0000000   0.4041452   0.0000000), wk =   0.0219780
        k(   23) = (   0.0000000   0.4233902   0.0000000), wk =   0.0219780
        k(   24) = (   0.0000000   0.4426352   0.0000000), wk =   0.0219780
        k(   25) = (   0.0000000   0.4618802   0.0000000), wk =   0.0219780
        k(   26) = (   0.0000000   0.4811252   0.0000000), wk =   0.0219780
        k(   27) = (   0.0000000   0.5003702   0.0000000), wk =   0.0219780
        k(   28) = (   0.0000000   0.5196152   0.0000000), wk =   0.0219780
        k(   29) = (   0.0000000   0.5388603   0.0000000), wk =   0.0219780
        k(   30) = (   0.0000000   0.5581053   0.0000000), wk =   0.0219780
        k(   31) = (   0.0000000   0.5773503   0.0000000), wk =   0.0219780
        k(   32) = (   0.0111100   0.5773483   0.0000000), wk =   0.0219780
        k(   33) = (   0.0222200   0.5773464   0.0000000), wk =   0.0219780
        k(   34) = (   0.0333300   0.5773445   0.0000000), wk =   0.0219780
        k(   35) = (   0.0444400   0.5773426   0.0000000), wk =   0.0219780
        k(   36) = (   0.0555500   0.5773406   0.0000000), wk =   0.0219780
        k(   37) = (   0.0666600   0.5773387   0.0000000), wk =   0.0219780
        k(   38) = (   0.0777700   0.5773368   0.0000000), wk =   0.0219780
        k(   39) = (   0.0888800   0.5773349   0.0000000), wk =   0.0219780
        k(   40) = (   0.0999900   0.5773329   0.0000000), wk =   0.0219780
        k(   41) = (   0.1111000   0.5773310   0.0000000), wk =   0.0219780
        k(   42) = (   0.1222100   0.5773291   0.0000000), wk =   0.0219780
        k(   43) = (   0.1333200   0.5773272   0.0000000), wk =   0.0219780
        k(   44) = (   0.1444300   0.5773253   0.0000000), wk =   0.0219780
        k(   45) = (   0.1555400   0.5773233   0.0000000), wk =   0.0219780
        k(   46) = (   0.1666500   0.5773214   0.0000000), wk =   0.0219780
        k(   47) = (   0.1777600   0.5773195   0.0000000), wk =   0.0219780
        k(   48) = (   0.1888700   0.5773176   0.0000000), wk =   0.0219780
        k(   49) = (   0.1999800   0.5773156   0.0000000), wk =   0.0219780
        k(   50) = (   0.2110900   0.5773137   0.0000000), wk =   0.0219780
        k(   51) = (   0.2222000   0.5773118   0.0000000), wk =   0.0219780
        k(   52) = (   0.2333100   0.5773099   0.0000000), wk =   0.0219780
        k(   53) = (   0.2444200   0.5773079   0.0000000), wk =   0.0219780
        k(   54) = (   0.2555300   0.5773060   0.0000000), wk =   0.0219780
        k(   55) = (   0.2666400   0.5773041   0.0000000), wk =   0.0219780
        k(   56) = (   0.2777500   0.5773022   0.0000000), wk =   0.0219780
        k(   57) = (   0.2888600   0.5773002   0.0000000), wk =   0.0219780
        k(   58) = (   0.2999700   0.5772983   0.0000000), wk =   0.0219780
        k(   59) = (   0.3110800   0.5772964   0.0000000), wk =   0.0219780
        k(   60) = (   0.3221900   0.5772945   0.0000000), wk =   0.0219780
        k(   61) = (   0.3333000   0.5772925   0.0000000), wk =   0.0219780
        k(   62) = (   0.3221900   0.5580494   0.0000000), wk =   0.0219780
        k(   63) = (   0.3110800   0.5388064   0.0000000), wk =   0.0219780
        k(   64) = (   0.2999700   0.5195633   0.0000000), wk =   0.0219780
        k(   65) = (   0.2888600   0.5003202   0.0000000), wk =   0.0219780
        k(   66) = (   0.2777500   0.4810771   0.0000000), wk =   0.0219780
        k(   67) = (   0.2666400   0.4618340   0.0000000), wk =   0.0219780
        k(   68) = (   0.2555300   0.4425909   0.0000000), wk =   0.0219780
        k(   69) = (   0.2444200   0.4233479   0.0000000), wk =   0.0219780
        k(   70) = (   0.2333100   0.4041048   0.0000000), wk =   0.0219780
        k(   71) = (   0.2222000   0.3848617   0.0000000), wk =   0.0219780
        k(   72) = (   0.2110900   0.3656186   0.0000000), wk =   0.0219780
        k(   73) = (   0.1999800   0.3463755   0.0000000), wk =   0.0219780
        k(   74) = (   0.1888700   0.3271324   0.0000000), wk =   0.0219780
        k(   75) = (   0.1777600   0.3078894   0.0000000), wk =   0.0219780
        k(   76) = (   0.1666500   0.2886463   0.0000000), wk =   0.0219780
        k(   77) = (   0.1555400   0.2694032   0.0000000), wk =   0.0219780
        k(   78) = (   0.1444300   0.2501601   0.0000000), wk =   0.0219780
        k(   79) = (   0.1333200   0.2309170   0.0000000), wk =   0.0219780
        k(   80) = (   0.1222100   0.2116739   0.0000000), wk =   0.0219780
        k(   81) = (   0.1111000   0.1924308   0.0000000), wk =   0.0219780
        k(   82) = (   0.0999900   0.1731878   0.0000000), wk =   0.0219780
        k(   83) = (   0.0888800   0.1539447   0.0000000), wk =   0.0219780
        k(   84) = (   0.0777700   0.1347016   0.0000000), wk =   0.0219780
        k(   85) = (   0.0666600   0.1154585   0.0000000), wk =   0.0219780
        k(   86) = (   0.0555500   0.0962154   0.0000000), wk =   0.0219780
        k(   87) = (   0.0444400   0.0769723   0.0000000), wk =   0.0219780
        k(   88) = (   0.0333300   0.0577293   0.0000000), wk =   0.0219780
        k(   89) = (   0.0222200   0.0384862   0.0000000), wk =   0.0219780
        k(   90) = (   0.0111100   0.0192431   0.0000000), wk =   0.0219780
        k(   91) = (   0.0000000   0.0000000   0.0000000), wk =   0.0219780

                       cryst. coord.
        k(    1) = (   0.0000000   0.0000000   0.0000000), wk =   0.0219780
        k(    2) = (   0.0000000   0.0166667   0.0000000), wk =   0.0219780
        k(    3) = (   0.0000000   0.0333333   0.0000000), wk =   0.0219780
        k(    4) = (   0.0000000   0.0500000   0.0000000), wk =   0.0219780
        k(    5) = (   0.0000000   0.0666667   0.0000000), wk =   0.0219780
        k(    6) = (   0.0000000   0.0833333   0.0000000), wk =   0.0219780
        k(    7) = (   0.0000000   0.1000000   0.0000000), wk =   0.0219780
        k(    8) = (   0.0000000   0.1166667   0.0000000), wk =   0.0219780
        k(    9) = (   0.0000000   0.1333333   0.0000000), wk =   0.0219780
        k(   10) = (   0.0000000   0.1500000   0.0000000), wk =   0.0219780
        k(   11) = (   0.0000000   0.1666667   0.0000000), wk =   0.0219780
        k(   12) = (   0.0000000   0.1833333   0.0000000), wk =   0.0219780
        k(   13) = (   0.0000000   0.2000000   0.0000000), wk =   0.0219780
        k(   14) = (   0.0000000   0.2166667   0.0000000), wk =   0.0219780
        k(   15) = (   0.0000000   0.2333333   0.0000000), wk =   0.0219780
        k(   16) = (   0.0000000   0.2500000   0.0000000), wk =   0.0219780
        k(   17) = (   0.0000000   0.2666667   0.0000000), wk =   0.0219780
        k(   18) = (   0.0000000   0.2833333   0.0000000), wk =   0.0219780
        k(   19) = (   0.0000000   0.3000000   0.0000000), wk =   0.0219780
        k(   20) = (   0.0000000   0.3166667   0.0000000), wk =   0.0219780
        k(   21) = (   0.0000000   0.3333333   0.0000000), wk =   0.0219780
        k(   22) = (   0.0000000   0.3500000   0.0000000), wk =   0.0219780
        k(   23) = (   0.0000000   0.3666667   0.0000000), wk =   0.0219780
        k(   24) = (   0.0000000   0.3833333   0.0000000), wk =   0.0219780
        k(   25) = (   0.0000000   0.4000000   0.0000000), wk =   0.0219780
        k(   26) = (   0.0000000   0.4166667   0.0000000), wk =   0.0219780
        k(   27) = (   0.0000000   0.4333333   0.0000000), wk =   0.0219780
        k(   28) = (   0.0000000   0.4500000   0.0000000), wk =   0.0219780
        k(   29) = (   0.0000000   0.4666667   0.0000000), wk =   0.0219780
        k(   30) = (   0.0000000   0.4833333   0.0000000), wk =   0.0219780
        k(   31) = (   0.0000000   0.5000000   0.0000000), wk =   0.0219780
        k(   32) = (   0.0111100   0.4944433   0.0000000), wk =   0.0219780
        k(   33) = (   0.0222200   0.4888867   0.0000000), wk =   0.0219780
        k(   34) = (   0.0333300   0.4833300   0.0000000), wk =   0.0219780
        k(   35) = (   0.0444400   0.4777733   0.0000000), wk =   0.0219780
        k(   36) = (   0.0555500   0.4722167   0.0000000), wk =   0.0219780
        k(   37) = (   0.0666600   0.4666600   0.0000000), wk =   0.0219780
        k(   38) = (   0.0777700   0.4611033   0.0000000), wk =   0.0219780
        k(   39) = (   0.0888800   0.4555467   0.0000000), wk =   0.0219780
        k(   40) = (   0.0999900   0.4499900   0.0000000), wk =   0.0219780
        k(   41) = (   0.1111000   0.4444333   0.0000000), wk =   0.0219780
        k(   42) = (   0.1222100   0.4388767   0.0000000), wk =   0.0219780
        k(   43) = (   0.1333200   0.4333200   0.0000000), wk =   0.0219780
        k(   44) = (   0.1444300   0.4277633   0.0000000), wk =   0.0219780
        k(   45) = (   0.1555400   0.4222067   0.0000000), wk =   0.0219780
        k(   46) = (   0.1666500   0.4166500   0.0000000), wk =   0.0219780
        k(   47) = (   0.1777600   0.4110933   0.0000000), wk =   0.0219780
        k(   48) = (   0.1888700   0.4055367   0.0000000), wk =   0.0219780
        k(   49) = (   0.1999800   0.3999800   0.0000000), wk =   0.0219780
        k(   50) = (   0.2110900   0.3944233   0.0000000), wk =   0.0219780
        k(   51) = (   0.2222000   0.3888667   0.0000000), wk =   0.0219780
        k(   52) = (   0.2333100   0.3833100   0.0000000), wk =   0.0219780
        k(   53) = (   0.2444200   0.3777533   0.0000000), wk =   0.0219780
        k(   54) = (   0.2555300   0.3721967   0.0000000), wk =   0.0219780
        k(   55) = (   0.2666400   0.3666400   0.0000000), wk =   0.0219780
        k(   56) = (   0.2777500   0.3610833   0.0000000), wk =   0.0219780
        k(   57) = (   0.2888600   0.3555267   0.0000000), wk =   0.0219780
        k(   58) = (   0.2999700   0.3499700   0.0000000), wk =   0.0219780
        k(   59) = (   0.3110800   0.3444133   0.0000000), wk =   0.0219780
        k(   60) = (   0.3221900   0.3388567   0.0000000), wk =   0.0219780
        k(   61) = (   0.3333000   0.3333000   0.0000000), wk =   0.0219780
        k(   62) = (   0.3221900   0.3221900   0.0000000), wk =   0.0219780
        k(   63) = (   0.3110800   0.3110800   0.0000000), wk =   0.0219780
        k(   64) = (   0.2999700   0.2999700   0.0000000), wk =   0.0219780
        k(   65) = (   0.2888600   0.2888600   0.0000000), wk =   0.0219780
        k(   66) = (   0.2777500   0.2777500   0.0000000), wk =   0.0219780
        k(   67) = (   0.2666400   0.2666400   0.0000000), wk =   0.0219780
        k(   68) = (   0.2555300   0.2555300   0.0000000), wk =   0.0219780
        k(   69) = (   0.2444200   0.2444200   0.0000000), wk =   0.0219780
        k(   70) = (   0.2333100   0.2333100   0.0000000), wk =   0.0219780
        k(   71) = (   0.2222000   0.2222000   0.0000000), wk =   0.0219780
        k(   72) = (   0.2110900   0.2110900   0.0000000), wk =   0.0219780
        k(   73) = (   0.1999800   0.1999800   0.0000000), wk =   0.0219780
        k(   74) = (   0.1888700   0.1888700   0.0000000), wk =   0.0219780
        k(   75) = (   0.1777600   0.1777600   0.0000000), wk =   0.0219780
        k(   76) = (   0.1666500   0.1666500   0.0000000), wk =   0.0219780
        k(   77) = (   0.1555400   0.1555400   0.0000000), wk =   0.0219780
        k(   78) = (   0.1444300   0.1444300   0.0000000), wk =   0.0219780
        k(   79) = (   0.1333200   0.1333200   0.0000000), wk =   0.0219780
        k(   80) = (   0.1222100   0.1222100   0.0000000), wk =   0.0219780
        k(   81) = (   0.1111000   0.1111000   0.0000000), wk =   0.0219780
        k(   82) = (   0.0999900   0.0999900   0.0000000), wk =   0.0219780
        k(   83) = (   0.0888800   0.0888800   0.0000000), wk =   0.0219780
        k(   84) = (   0.0777700   0.0777700   0.0000000), wk =   0.0219780
        k(   85) = (   0.0666600   0.0666600   0.0000000), wk =   0.0219780
        k(   86) = (   0.0555500   0.0555500   0.0000000), wk =   0.0219780
        k(   87) = (   0.0444400   0.0444400   0.0000000), wk =   0.0219780
        k(   88) = (   0.0333300   0.0333300   0.0000000), wk =   0.0219780
        k(   89) = (   0.0222200   0.0222200   0.0000000), wk =   0.0219780
        k(   90) = (   0.0111100   0.0111100   0.0000000), wk =   0.0219780
        k(   91) = (   0.0000000   0.0000000   0.0000000), wk =   0.0219780

     Dense  grid:   283153 G-vectors     FFT dimensions: (  60,  60, 192)

     Smooth grid:   100205 G-vectors     FFT dimensions: (  45,  45, 135)

     Dynamical RAM for                 wfc:       2.29 MB

     Dynamical RAM for     wfc (w. buffer):       2.29 MB

     Dynamical RAM for           str. fact:       4.32 MB

     Dynamical RAM for           local pot:       0.00 MB

     Dynamical RAM for          nlocal pot:      13.76 MB

     Dynamical RAM for                qrad:       2.32 MB

     Dynamical RAM for          rho,v,vnew:      28.78 MB

     Dynamical RAM for           G-vectors:      16.97 MB

     Dynamical RAM for          h,s,v(r/c):       0.11 MB

     Dynamical RAM for          <psi|beta>:       0.01 MB

     Dynamical RAM for                 psi:       9.17 MB

     Dynamical RAM for                hpsi:       9.17 MB

     Dynamical RAM for      wfcinit/wfcrot:       6.12 MB

     Estimated static dynamical RAM per process >     103.45 MB

     Estimated max dynamical RAM per process >     121.91 MB

     The potential is recalculated from file :
     ./out/aiida.save/charge-density

     Starting wfcs are   16 randomized atomic wfcs

     Band Structure Calculation
     Davidson diagonalization with overlap

     Computing kpt #:     1
     total cpu time spent up to now is       11.2 secs

     Computing kpt #:     2
     total cpu time spent up to now is       20.7 secs

     Computing kpt #:     3
     total cpu time spent up to now is       29.4 secs

     Computing kpt #:     4
     total cpu time spent up to now is       38.8 secs

     Computing kpt #:     5
     total cpu time spent up to now is       47.7 secs

     Computing kpt #:     6
     total cpu time spent up to now is       56.1 secs

     Computing kpt #:     7
     total cpu time spent up to now is       64.0 secs

     Computing kpt #:     8
     total cpu time spent up to now is       71.7 secs

     Computing kpt #:     9
     total cpu time spent up to now is       80.5 secs

     Computing kpt #:    10
     total cpu time spent up to now is       86.7 secs

     Computing kpt #:    11
     total cpu time spent up to now is       97.3 secs

     Computing kpt #:    12
     c_bands:  1 eigenvalues not converged
     total cpu time spent up to now is      106.5 secs

     Computing kpt #:    13
     total cpu time spent up to now is      113.2 secs

     Computing kpt #:    14
     total cpu time spent up to now is      119.9 secs

     Computing kpt #:    15
     total cpu time spent up to now is      125.4 secs

     Computing kpt #:    16
     total cpu time spent up to now is      130.1 secs

     Computing kpt #:    17
     total cpu time spent up to now is      135.8 secs

     Computing kpt #:    18
     total cpu time spent up to now is      141.7 secs

     Computing kpt #:    19
     total cpu time spent up to now is      147.1 secs

     Computing kpt #:    20
     total cpu time spent up to now is      152.3 secs

     Computing kpt #:    21
     total cpu time spent up to now is      157.6 secs

     Computing kpt #:    22
     total cpu time spent up to now is      162.5 secs

     Computing kpt #:    23
     total cpu time spent up to now is      168.1 secs

     Computing kpt #:    24
     total cpu time spent up to now is      173.2 secs

     Computing kpt #:    25
     total cpu time spent up to now is      177.4 secs

     Computing kpt #:    26
     total cpu time spent up to now is      182.5 secs

     Computing kpt #:    27
     total cpu time spent up to now is      186.9 secs

     Computing kpt #:    28
     total cpu time spent up to now is      191.7 secs

     Computing kpt #:    29
     total cpu time spent up to now is      195.7 secs

     Computing kpt #:    30
     total cpu time spent up to now is      200.5 secs

     Computing kpt #:    31
     total cpu time spent up to now is      204.5 secs

     Computing kpt #:    32
     total cpu time spent up to now is      210.0 secs

     Computing kpt #:    33
     total cpu time spent up to now is      215.7 secs

     Computing kpt #:    34
     total cpu time spent up to now is      219.5 secs

     Computing kpt #:    35
     total cpu time spent up to now is      225.1 secs

     Computing kpt #:    36
     total cpu time spent up to now is      230.5 secs

     Computing kpt #:    37
     total cpu time spent up to now is      236.9 secs

     Computing kpt #:    38
     total cpu time spent up to now is      242.8 secs

     Computing kpt #:    39
     total cpu time spent up to now is      249.0 secs

     Computing kpt #:    40
     total cpu time spent up to now is      253.6 secs

     Computing kpt #:    41
     total cpu time spent up to now is      258.8 secs

     Computing kpt #:    42
     total cpu time spent up to now is      263.0 secs

     Computing kpt #:    43
     total cpu time spent up to now is      267.9 secs

     Computing kpt #:    44
     total cpu time spent up to now is      274.0 secs

     Computing kpt #:    45
     total cpu time spent up to now is      279.5 secs

     Computing kpt #:    46
     total cpu time spent up to now is      284.0 secs

     Computing kpt #:    47
     total cpu time spent up to now is      288.8 secs

     Computing kpt #:    48
     total cpu time spent up to now is      294.3 secs

     Computing kpt #:    49
     total cpu time spent up to now is      299.9 secs

     Computing kpt #:    50
     total cpu time spent up to now is      304.5 secs

     Computing kpt #:    51
     total cpu time spent up to now is      309.6 secs

     Computing kpt #:    52
     total cpu time spent up to now is      315.4 secs

     Computing kpt #:    53
     total cpu time spent up to now is      322.0 secs

     Computing kpt #:    54
     total cpu time spent up to now is      327.9 secs

     Computing kpt #:    55
     total cpu time spent up to now is      334.0 secs

     Computing kpt #:    56
     total cpu time spent up to now is      340.1 secs

     Computing kpt #:    57
     total cpu time spent up to now is      346.2 secs

     Computing kpt #:    58
     total cpu time spent up to now is      351.8 secs

     Computing kpt #:    59
     total cpu time spent up to now is      359.1 secs

     Computing kpt #:    60
     total cpu time spent up to now is      366.7 secs

     Computing kpt #:    61
     total cpu time spent up to now is      372.9 secs

     Computing kpt #:    62
     total cpu time spent up to now is      379.1 secs

     Computing kpt #:    63
     total cpu time spent up to now is      385.3 secs

     Computing kpt #:    64
     total cpu time spent up to now is      391.4 secs

     Computing kpt #:    65
     total cpu time spent up to now is      398.4 secs

     Computing kpt #:    66
     total cpu time spent up to now is      404.9 secs

     Computing kpt #:    67
     total cpu time spent up to now is      409.2 secs

     Computing kpt #:    68
     total cpu time spent up to now is      416.2 secs

     Computing kpt #:    69
     total cpu time spent up to now is      420.9 secs

     Computing kpt #:    70
     total cpu time spent up to now is      426.1 secs

     Computing kpt #:    71
     total cpu time spent up to now is      432.3 secs

     Computing kpt #:    72
     total cpu time spent up to now is      437.2 secs

     Computing kpt #:    73
     total cpu time spent up to now is      442.9 secs

     Computing kpt #:    74
     total cpu time spent up to now is      449.4 secs

     Computing kpt #:    75
     total cpu time spent up to now is      454.9 secs

     Computing kpt #:    76
     total cpu time spent up to now is      460.9 secs

     Computing kpt #:    77
     total cpu time spent up to now is      466.9 secs

     Computing kpt #:    78
     total cpu time spent up to now is      472.9 secs

     Computing kpt #:    79
     total cpu time spent up to now is      478.8 secs

     Computing kpt #:    80
     total cpu time spent up to now is      485.0 secs

     Computing kpt #:    81
     total cpu time spent up to now is      490.6 secs

     Computing kpt #:    82
     total cpu time spent up to now is      496.8 secs

     Computing kpt #:    83
     total cpu time spent up to now is      503.0 secs

     Computing kpt #:    84
     total cpu time spent up to now is      509.3 secs

     Computing kpt #:    85
     total cpu time spent up to now is      516.6 secs

     Computing kpt #:    86
     total cpu time spent up to now is      523.0 secs

     Computing kpt #:    87
     total cpu time spent up to now is      529.1 secs

     Computing kpt #:    88
     total cpu time spent up to now is      537.0 secs

     Computing kpt #:    89
     total cpu time spent up to now is      544.3 secs

     Computing kpt #:    90
     total cpu time spent up to now is      551.0 secs

     Computing kpt #:    91
     total cpu time spent up to now is      556.9 secs

     ethr =  5.00E-12,  avg # of iterations = 43.2

     total cpu time spent up to now is      556.9 secs

     End of band structure calculation

          k = 0.0000 0.0000 0.0000 ( 12539 PWs)   bands (ev):

   -13.5431 -10.4883  -9.1065  -9.1025  -5.7295  -5.5073  -5.5049  -3.5436
    -2.2887  -2.2855  -1.3019   0.8260

          k = 0.0000 0.0192 0.0000 ( 12549 PWs)   bands (ev):

   -13.5422 -10.4949  -9.1046  -9.0981  -5.7290  -5.5062  -5.5038  -3.5472
    -2.2875  -2.2840  -1.3000   0.8269

          k = 0.0000 0.0385 0.0000 ( 12559 PWs)   bands (ev):

   -13.5395 -10.5142  -9.1058  -9.0782  -5.7276  -5.5059  -5.4973  -3.5576
    -2.2886  -2.2748  -1.2944   0.8291

          k = 0.0000 0.0577 0.0000 ( 12553 PWs)   bands (ev):

   -13.5350 -10.5451  -9.1085  -9.0458  -5.7253  -5.5058  -5.4858  -3.5746
    -2.2912  -2.2592  -1.2850   0.8302

          k = 0.0000 0.0770 0.0000 ( 12553 PWs)   bands (ev):

   -13.5288 -10.5860  -9.1123  -9.0027  -5.7227  -5.5052  -5.4698  -3.5974
    -2.2948  -2.2381  -1.2723   0.8249

          k = 0.0000 0.0962 0.0000 ( 12557 PWs)   bands (ev):

   -13.5208 -10.6351  -9.1170  -8.9508  -5.7201  -5.5036  -5.4494  -3.6255
    -2.2994  -2.2123  -1.2565   0.8031

          k = 0.0000 0.1155 0.0000 ( 12533 PWs)   bands (ev):

   -13.5110 -10.6909  -9.1227  -8.8918  -5.7181  -5.5003  -5.4246  -3.6580
    -2.3049  -2.1825  -1.2380   0.7565

          k = 0.0000 0.1347 0.0000 ( 12511 PWs)   bands (ev):

   -13.4995 -10.7517  -9.1292  -8.8273  -5.7174  -5.4945  -5.3957  -3.6941
    -2.3113  -2.1497  -1.2175   0.6868

          k = 0.0000 0.1540 0.0000 ( 12519 PWs)   bands (ev):

   -13.4863 -10.8163  -9.1364  -8.7587  -5.7184  -5.4857  -5.3628  -3.7329
    -2.3184  -2.1146  -1.1959   0.6008

          k = 0.0000 0.1732 0.0000 ( 12512 PWs)   bands (ev):

   -13.4715 -10.8836  -9.1443  -8.6871  -5.7215  -5.4734  -5.3262  -3.7739
    -2.3261  -2.0779  -1.1742   0.5046

          k = 0.0000 0.1925 0.0000 ( 12504 PWs)   bands (ev):

   -13.4551 -10.9529  -9.1527  -8.6135  -5.7269  -5.4575  -5.2861  -3.8161
    -2.3344  -2.0404  -1.1537   0.4036

          k = 0.0000 0.2117 0.0000 ( 12514 PWs)   bands (ev):

   -13.4371 -11.0232  -9.1615  -8.5388  -5.7343  -5.4380  -5.2426  -3.8590
    -2.3432  -2.0027  -1.1364   0.3005

          k = 0.0000 0.2309 0.0000 ( 12522 PWs)   bands (ev):

   -13.4177 -11.0941  -9.1707  -8.4637  -5.7435  -5.4154  -5.1962  -3.9019
    -2.3524  -1.9655  -1.1245   0.1759

          k = 0.0000 0.2502 0.0000 ( 12514 PWs)   bands (ev):

   -13.3968 -11.1651  -9.1801  -8.3889  -5.7542  -5.3900  -5.1471  -3.9442
    -2.3618  -1.9293  -1.1207   0.0483

          k = 0.0000 0.2694 0.0000 ( 12504 PWs)   bands (ev):

   -13.3746 -11.2356  -9.1895  -8.3148  -5.7659  -5.3622  -5.0957  -3.9852
    -2.3714  -1.8948  -1.1276  -0.0791

          k = 0.0000 0.2887 0.0000 ( 12534 PWs)   bands (ev):

   -13.3513 -11.3053  -9.1990  -8.2421  -5.7783  -5.3327  -5.0423  -4.0243
    -2.3811  -1.8627  -1.1477  -0.2052

          k = 0.0000 0.3079 0.0000 ( 12526 PWs)   bands (ev):

   -13.3268 -11.3739  -9.2084  -8.1713  -5.7912  -5.3021  -4.9874  -4.0609
    -2.3908  -1.8341  -1.1814  -0.3292

          k = 0.0000 0.3272 0.0000 ( 12504 PWs)   bands (ev):

   -13.3015 -11.4410  -9.2175  -8.1028  -5.8042  -5.2710  -4.9314  -4.0943
    -2.4003  -1.8101  -1.2272  -0.4501

          k = 0.0000 0.3464 0.0000 ( 12510 PWs)   bands (ev):

   -13.2754 -11.5061  -9.2264  -8.0370  -5.8172  -5.2401  -4.8749  -4.1240
    -2.4097  -1.7926  -1.2812  -0.5672

          k = 0.0000 0.3657 0.0000 ( 12524 PWs)   bands (ev):

   -13.2488 -11.5691  -9.2349  -7.9744  -5.8298  -5.2102  -4.8183  -4.1492
    -2.4189  -1.7846  -1.3373  -0.6798

          k = 0.0000 0.3849 0.0000 ( 12516 PWs)   bands (ev):

   -13.2219 -11.6294  -9.2429  -7.9155  -5.8419  -5.1820  -4.7625  -4.1696
    -2.4277  -1.7899  -1.3882  -0.7870

          k = 0.0000 0.4041 0.0000 ( 12514 PWs)   bands (ev):

   -13.1951 -11.6867  -9.2504  -7.8607  -5.8534  -5.1562  -4.7080  -4.1846
    -2.4361  -1.8120  -1.4271  -0.8879

          k = 0.0000 0.4234 0.0000 ( 12524 PWs)   bands (ev):

   -13.1688 -11.7406  -9.2573  -7.8103  -5.8640  -5.1334  -4.6557  -4.1943
    -2.4441  -1.8511  -1.4508  -0.9818

          k = 0.0000 0.4426 0.0000 ( 12520 PWs)   bands (ev):

   -13.1434 -11.7904  -9.2635  -7.7647  -5.8737  -5.1140  -4.6063  -4.1988
    -2.4514  -1.9026  -1.4616  -1.0677

          k = 0.0000 0.4619 0.0000 ( 12520 PWs)   bands (ev):

   -13.1195 -11.8356  -9.2689  -7.7244  -5.8824  -5.0981  -4.5608  -4.1987
    -2.4582  -1.9598  -1.4639  -1.1447

          k = 0.0000 0.4811 0.0000 ( 12526 PWs)   bands (ev):

   -13.0975 -11.8756  -9.2737  -7.6896  -5.8899  -5.0858  -4.5201  -4.1949
    -2.4641  -2.0166  -1.4617  -1.2119

          k = 0.0000 0.5004 0.0000 ( 12516 PWs)   bands (ev):

   -13.0783 -11.9097  -9.2776  -7.6606  -5.8961  -5.0766  -4.4852  -4.1889
    -2.4693  -2.0684  -1.4576  -1.2683

          k = 0.0000 0.5196 0.0000 ( 12524 PWs)   bands (ev):

   -13.0624 -11.9372  -9.2806  -7.6378  -5.9011  -5.0701  -4.4570  -4.1820
    -2.4734  -2.1121  -1.4533  -1.3133

          k = 0.0000 0.5389 0.0000 ( 12528 PWs)   bands (ev):

   -13.0504 -11.9574  -9.2829  -7.6213  -5.9047  -5.0659  -4.4361  -4.1758
    -2.4765  -2.1450  -1.4496  -1.3459

          k = 0.0000 0.5581 0.0000 ( 12528 PWs)   bands (ev):

   -13.0430 -11.9698  -9.2842  -7.6114  -5.9068  -5.0636  -4.4234  -4.1715
    -2.4784  -2.1655  -1.4472  -1.3658

          k = 0.0000 0.5774 0.0000 ( 12536 PWs)   bands (ev):

   -13.0405 -11.9740  -9.2846  -7.6081  -5.9076  -5.0628  -4.4191  -4.1699
    -2.4790  -2.1725  -1.4464  -1.3724

          k = 0.0111 0.5773 0.0000 ( 12528 PWs)   bands (ev):

   -13.0403 -11.9744  -9.2851  -7.6066  -5.9087  -5.0623  -4.4187  -4.1704
    -2.4833  -2.1677  -1.4465  -1.3714

          k = 0.0222 0.5773 0.0000 ( 12530 PWs)   bands (ev):

   -13.0395 -11.9756  -9.2865  -7.6022  -5.9122  -5.0608  -4.4176  -4.1719
    -2.4953  -2.1543  -1.4466  -1.3684

          k = 0.0333 0.5773 0.0000 ( 12544 PWs)   bands (ev):

   -13.0382 -11.9776  -9.2888  -7.5949  -5.9181  -5.0583  -4.4157  -4.1743
    -2.5135  -2.1338  -1.4466  -1.3636

          k = 0.0444 0.5773 0.0000 ( 12532 PWs)   bands (ev):

   -13.0363 -11.9804  -9.2919  -7.5848  -5.9262  -5.0548  -4.4133  -4.1778
    -2.5360  -2.1081  -1.4462  -1.3573

          k = 0.0555 0.5773 0.0000 ( 12514 PWs)   bands (ev):

   -13.0340 -11.9839  -9.2958  -7.5720  -5.9366  -5.0502  -4.4102  -4.1821
    -2.5612  -2.0787  -1.4452  -1.3497

          k = 0.0667 0.5773 0.0000 ( 12514 PWs)   bands (ev):

   -13.0312 -11.9882  -9.3005  -7.5565  -5.9491  -5.0445  -4.4066  -4.1874
    -2.5880  -2.0466  -1.4435  -1.3410

          k = 0.0778 0.5773 0.0000 ( 12518 PWs)   bands (ev):

   -13.0279 -11.9933  -9.3058  -7.5385  -5.9637  -5.0378  -4.4026  -4.1936
    -2.6158  -2.0126  -1.4409  -1.3316

          k = 0.0889 0.5773 0.0000 ( 12516 PWs)   bands (ev):

   -13.0241 -11.9990  -9.3116  -7.5180  -5.9803  -5.0301  -4.3983  -4.2006
    -2.6441  -1.9770  -1.4372  -1.3215

          k = 0.1000 0.5773 0.0000 ( 12524 PWs)   bands (ev):

   -13.0198 -12.0054  -9.3179  -7.4953  -5.9988  -5.0212  -4.3939  -4.2085
    -2.6723  -1.9403  -1.4325  -1.3109

          k = 0.1111 0.5773 0.0000 ( 12520 PWs)   bands (ev):

   -13.0152 -12.0124  -9.3245  -7.4705  -6.0192  -5.0112  -4.3895  -4.2171
    -2.7003  -1.9027  -1.4266  -1.3000

          k = 0.1222 0.5773 0.0000 ( 12498 PWs)   bands (ev):

   -13.0101 -12.0200  -9.3314  -7.4437  -6.0412  -5.0002  -4.3852  -4.2263
    -2.7278  -1.8643  -1.4195  -1.2888

          k = 0.1333 0.5773 0.0000 ( 12506 PWs)   bands (ev):

   -13.0046 -12.0281  -9.3385  -7.4151  -6.0648  -4.9880  -4.3814  -4.2360
    -2.7547  -1.8252  -1.4112  -1.2774

          k = 0.1444 0.5773 0.0000 ( 12514 PWs)   bands (ev):

   -12.9988 -12.0367  -9.3457  -7.3848  -6.0899  -4.9747  -4.3781  -4.2461
    -2.7808  -1.7857  -1.4017  -1.2661

          k = 0.1555 0.5773 0.0000 ( 12522 PWs)   bands (ev):

   -12.9927 -12.0457  -9.3528  -7.3531  -6.1164  -4.9604  -4.3757  -4.2564
    -2.8059  -1.7456  -1.3911  -1.2547

          k = 0.1666 0.5773 0.0000 ( 12534 PWs)   bands (ev):

   -12.9864 -12.0551  -9.3599  -7.3200  -6.1441  -4.9450  -4.3746  -4.2663
    -2.8301  -1.7051  -1.3794  -1.2434

          k = 0.1778 0.5773 0.0000 ( 12522 PWs)   bands (ev):

   -12.9798 -12.0647  -9.3667  -7.2858  -6.1729  -4.9285  -4.3753  -4.2756
    -2.8531  -1.6643  -1.3666  -1.2321

          k = 0.1889 0.5773 0.0000 ( 12528 PWs)   bands (ev):

   -12.9731 -12.0744  -9.3734  -7.2507  -6.2027  -4.9111  -4.3783  -4.2838
    -2.8749  -1.6232  -1.3528  -1.2209

          k = 0.2000 0.5773 0.0000 ( 12536 PWs)   bands (ev):

   -12.9662 -12.0843  -9.3797  -7.2147  -6.2333  -4.8927  -4.3840  -4.2903
    -2.8955  -1.5819  -1.3381  -1.2098

          k = 0.2111 0.5773 0.0000 ( 12532 PWs)   bands (ev):

   -12.9594 -12.0941  -9.3857  -7.1782  -6.2647  -4.8735  -4.3926  -4.2951
    -2.9146  -1.5405  -1.3227  -1.1986

          k = 0.2222 0.5773 0.0000 ( 12534 PWs)   bands (ev):

   -12.9526 -12.1039  -9.3913  -7.1412  -6.2967  -4.8534  -4.4038  -4.2982
    -2.9324  -1.4992  -1.3065  -1.1872

          k = 0.2333 0.5773 0.0000 ( 12536 PWs)   bands (ev):

   -12.9459 -12.1133  -9.3965  -7.1042  -6.3290  -4.8326  -4.4173  -4.3002
    -2.9487  -1.4581  -1.2898  -1.1755

          k = 0.2444 0.5773 0.0000 ( 12536 PWs)   bands (ev):

   -12.9395 -12.1224  -9.4012  -7.0672  -6.3615  -4.8112  -4.4324  -4.3014
    -2.9634  -1.4179  -1.2724  -1.1631

          k = 0.2555 0.5773 0.0000 ( 12508 PWs)   bands (ev):

   -12.9334 -12.1310  -9.4054  -7.0307  -6.3938  -4.7895  -4.4489  -4.3021
    -2.9765  -1.3790  -1.2540  -1.1498

          k = 0.2666 0.5773 0.0000 ( 12510 PWs)   bands (ev):

   -12.9278 -12.1389  -9.4090  -6.9951  -6.4257  -4.7675  -4.4662  -4.3025
    -2.9881  -1.3430  -1.2340  -1.1352

          k = 0.2777 0.5773 0.0000 ( 12502 PWs)   bands (ev):

   -12.9227 -12.1460  -9.4122  -6.9609  -6.4565  -4.7456  -4.4840  -4.3029
    -2.9979  -1.3118  -1.2106  -1.1190

          k = 0.2889 0.5773 0.0000 ( 12514 PWs)   bands (ev):

   -12.9182 -12.1521  -9.4147  -6.9291  -6.4855  -4.7244  -4.5017  -4.3032
    -3.0061  -1.2873  -1.1824  -1.1009

          k = 0.3000 0.5773 0.0000 ( 12514 PWs)   bands (ev):

   -12.9146 -12.1571  -9.4167  -6.9009  -6.5114  -4.7045  -4.5186  -4.3035
    -3.0125  -1.2701  -1.1492  -1.0809

          k = 0.3111 0.5773 0.0000 ( 12526 PWs)   bands (ev):

   -12.9119 -12.1608  -9.4182  -6.8780  -6.5326  -4.6873  -4.5336  -4.3037
    -3.0172  -1.2591  -1.1130  -1.0588

          k = 0.3222 0.5773 0.0000 ( 12534 PWs)   bands (ev):

   -12.9102 -12.1632  -9.4191  -6.8628  -6.5468  -4.6749  -4.5444  -4.3039
    -3.0200  -1.2529  -1.0769  -1.0344

          k = 0.3333 0.5773 0.0000 ( 12542 PWs)   bands (ev):

   -12.9097 -12.1639  -9.4194  -6.8575  -6.5517  -4.6704  -4.5484  -4.3040
    -3.0210  -1.2508  -1.0525  -1.0156

          k = 0.3222 0.5580 0.0000 ( 12538 PWs)   bands (ev):

   -12.9120 -12.1607  -9.4181  -6.8779  -6.5329  -4.6870  -4.5343  -4.3036
    -3.0170  -1.2631  -1.1481  -0.9730

          k = 0.3111 0.5388 0.0000 ( 12518 PWs)   bands (ev):

   -12.9197 -12.1500  -9.4147  -6.9294  -6.4862  -4.7243  -4.5057  -4.3020
    -3.0049  -1.3290  -1.2150  -0.9183

          k = 0.3000 0.5196 0.0000 ( 12508 PWs)   bands (ev):

   -12.9327 -12.1316  -9.4093  -6.9968  -6.4272  -4.7690  -4.4773  -4.2992
    -2.9842  -1.4338  -1.2383  -0.8637

          k = 0.2889 0.5003 0.0000 ( 12526 PWs)   bands (ev):

   -12.9508 -12.1056  -9.4020  -7.0720  -6.3643  -4.8165  -4.4544  -4.2956
    -2.9545  -1.5357  -1.2565  -0.8093

          k = 0.2777 0.4811 0.0000 ( 12532 PWs)   bands (ev):

   -12.9732 -12.0724  -9.3930  -7.1515  -6.3013  -4.8653  -4.4387  -4.2929
    -2.9156  -1.6252  -1.2761  -0.7558

          k = 0.2666 0.4618 0.0000 ( 12510 PWs)   bands (ev):

   -12.9994 -12.0325  -9.3824  -7.2337  -6.2399  -4.9145  -4.4307  -4.2920
    -2.8682  -1.6990  -1.2979  -0.7040

          k = 0.2555 0.4426 0.0000 ( 12510 PWs)   bands (ev):

   -13.0285 -11.9866  -9.3704  -7.3178  -6.1811  -4.9635  -4.4319  -4.2924
    -2.8137  -1.7553  -1.3215  -0.6552

          k = 0.2444 0.4233 0.0000 ( 12506 PWs)   bands (ev):

   -13.0597 -11.9352  -9.3572  -7.4034  -6.1256  -5.0119  -4.4453  -4.2908
    -2.7545  -1.7925  -1.3461  -0.6104

          k = 0.2333 0.4041 0.0000 ( 12504 PWs)   bands (ev):

   -13.0923 -11.8790  -9.3430  -7.4901  -6.0735  -5.0594  -4.4733  -4.2836
    -2.6940  -1.8102  -1.3703  -0.5708

          k = 0.2222 0.3849 0.0000 ( 12494 PWs)   bands (ev):

   -13.1259 -11.8185  -9.3279  -7.5779  -6.0251  -5.1057  -4.5155  -4.2695
    -2.6358  -1.8093  -1.3916  -0.5373

          k = 0.2111 0.3656 0.0000 ( 12508 PWs)   bands (ev):

   -13.1597 -11.7541  -9.3123  -7.6665  -5.9804  -5.1505  -4.5695  -4.2491
    -2.5833  -1.7940  -1.4059  -0.5102

          k = 0.2000 0.3464 0.0000 ( 12520 PWs)   bands (ev):

   -13.1935 -11.6862  -9.2962  -7.7561  -5.9395  -5.1937  -4.6321  -4.2231
    -2.5382  -1.7730  -1.4062  -0.4890

          k = 0.1889 0.3271 0.0000 ( 12522 PWs)   bands (ev):

   -13.2269 -11.6152  -9.2798  -7.8464  -5.9022  -5.2350  -4.7008  -4.1923
    -2.5008  -1.7590  -1.3845  -0.4716

          k = 0.1778 0.3079 0.0000 ( 12526 PWs)   bands (ev):

   -13.2594 -11.5415  -9.2634  -7.9374  -5.8685  -5.2741  -4.7733  -4.1570
    -2.4698  -1.7609  -1.3387  -0.4538

          k = 0.1666 0.2886 0.0000 ( 12528 PWs)   bands (ev):

   -13.2910 -11.4654  -9.2471  -8.0290  -5.8383  -5.3110  -4.8476  -4.1179
    -2.4440  -1.7789  -1.2773  -0.4293

          k = 0.1555 0.2694 0.0000 ( 12532 PWs)   bands (ev):

   -13.3213 -11.3873  -9.2310  -8.1211  -5.8114  -5.3453  -4.9220  -4.0754
    -2.4219  -1.8083  -1.2149  -0.3895

          k = 0.1444 0.2502 0.0000 ( 12532 PWs)   bands (ev):

   -13.3501 -11.3074  -9.2154  -8.2134  -5.7878  -5.3768  -4.9950  -4.0302
    -2.4025  -1.8450  -1.1649  -0.3264

          k = 0.1333 0.2309 0.0000 ( 12536 PWs)   bands (ev):

   -13.3774 -11.2263  -9.2003  -8.3058  -5.7675  -5.4052  -5.0657  -3.9826
    -2.3852  -1.8862  -1.1347  -0.2355

          k = 0.1222 0.2117 0.0000 ( 12550 PWs)   bands (ev):

   -13.4029 -11.1445  -9.1859  -8.3978  -5.7505  -5.4304  -5.1328  -3.9335
    -2.3695  -1.9301  -1.1247  -0.1185

          k = 0.1111 0.1924 0.0000 ( 12547 PWs)   bands (ev):

   -13.4265 -11.0623  -9.1724  -8.4891  -5.7369  -5.4519  -5.1958  -3.8836
    -2.3552  -1.9755  -1.1306   0.0184

          k = 0.1000 0.1732 0.0000 ( 12533 PWs)   bands (ev):

   -13.4481 -10.9806  -9.1598  -8.5790  -5.7269  -5.4696  -5.2539  -3.8335
    -2.3422  -2.0212  -1.1470   0.1680

          k = 0.0889 0.1539 0.0000 ( 12521 PWs)   bands (ev):

   -13.4677 -10.9002  -9.1483  -8.6668  -5.7203  -5.4833  -5.3066  -3.7841
    -2.3305  -2.0665  -1.1693   0.3231

          k = 0.0778 0.1347 0.0000 ( 12521 PWs)   bands (ev):

   -13.4851 -10.8220  -9.1379  -8.7514  -5.7170  -5.4931  -5.3536  -3.7365
    -2.3201  -2.1103  -1.1942   0.4760

          k = 0.0667 0.1155 0.0000 ( 12519 PWs)   bands (ev):

   -13.5004 -10.7473  -9.1287  -8.8317  -5.7165  -5.4995  -5.3945  -3.6915
    -2.3111  -2.1518  -1.2191   0.6178

          k = 0.0555 0.0962 0.0000 ( 12527 PWs)   bands (ev):

   -13.5133 -10.6779  -9.1208  -8.9059  -5.7181  -5.5032  -5.4291  -3.6504
    -2.3033  -2.1897  -1.2424   0.7347

          k = 0.0444 0.0770 0.0000 ( 12545 PWs)   bands (ev):

   -13.5240 -10.6156  -9.1143  -8.9721  -5.7209  -5.5049  -5.4574  -3.6143
    -2.2969  -2.2231  -1.2628   0.8059

          k = 0.0333 0.0577 0.0000 ( 12551 PWs)   bands (ev):

   -13.5324 -10.5630  -9.1092  -9.0279  -5.7241  -5.5053  -5.4793  -3.5845
    -2.2920  -2.2507  -1.2795   0.8283

          k = 0.0222 0.0385 0.0000 ( 12561 PWs)   bands (ev):

   -13.5383 -10.5226  -9.1055  -9.0705  -5.7269  -5.5052  -5.4949  -3.5622
    -2.2884  -2.2715  -1.2919   0.8297

          k = 0.0111 0.0192 0.0000 ( 12553 PWs)   bands (ev):

   -13.5419 -10.4971  -9.1033  -9.0973  -5.7289  -5.5050  -5.5042  -3.5483
    -2.2862  -2.2843  -1.2994   0.8272

          k = 0.0000 0.0000 0.0000 ( 12539 PWs)   bands (ev):

   -13.5431 -10.4883  -9.1065  -9.1025  -5.7295  -5.5073  -5.5049  -3.5436
    -2.2887  -2.2855  -1.3019   0.8260

     Writing output data file aiida.save/

     init_run     :      1.66s CPU      1.77s WALL (       1 calls)
     electrons    :    720.62s CPU    554.83s WALL (       1 calls)

     Called by init_run:
     wfcinit      :      0.00s CPU      0.00s WALL (       1 calls)
     wfcinit:atom :      0.55s CPU      0.70s WALL (      91 calls)
     wfcinit:wfcr :     26.85s CPU     24.72s WALL (      91 calls)
     potinit      :      0.54s CPU      0.60s WALL (       1 calls)
     hinit0       :      0.90s CPU      0.93s WALL (       1 calls)

     Called by electrons:
     c_bands      :    720.62s CPU    554.79s WALL (       1 calls)
     v_of_rho     :      0.46s CPU      0.49s WALL (       1 calls)
     v_h          :      0.04s CPU      0.04s WALL (       1 calls)
     v_xc         :      0.43s CPU      0.45s WALL (       1 calls)

     Called by c_bands:
     init_us_2    :      1.05s CPU      1.08s WALL (      91 calls)
     cegterg      :    677.97s CPU    517.49s WALL (     241 calls)

     Called by sum_band:

     Called by *egterg:
     h_psi        :    599.16s CPU    465.99s WALL (    4262 calls)
     g_psi        :      5.21s CPU      2.71s WALL (    3930 calls)
     cdiaghg      :      7.40s CPU      6.38s WALL (    4021 calls)
     cegterg:over :     38.00s CPU     28.75s WALL (    3930 calls)
     cegterg:upda :     32.46s CPU     21.10s WALL (    3930 calls)
     cegterg:last :     14.27s CPU      7.85s WALL (     725 calls)

     Called by h_psi:
     h_psi:pot    :    597.14s CPU    464.68s WALL (    4262 calls)
     h_psi:calbec :     54.55s CPU     43.46s WALL (    4262 calls)
     vloc_psi     :    488.04s CPU    391.44s WALL (    4262 calls)
     add_vuspsi   :     54.45s CPU     29.74s WALL (    4262 calls)

     General routines
     calbec       :     54.50s CPU     43.44s WALL (    4262 calls)
     fft          :      0.30s CPU      0.31s WALL (      12 calls)
     ffts         :      0.01s CPU      0.01s WALL (       1 calls)
     fftw         :    411.27s CPU    330.94s WALL (   50976 calls)
     interpolate  :      0.04s CPU      0.04s WALL (       1 calls)
     davcio       :      0.39s CPU      0.48s WALL (     182 calls)

     Parallel routines

     PWSCF        :  12m 2.86s CPU   9m17.78s WALL


   This run was terminated on:  20:15:50   9Jan2025            

=------------------------------------------------------------------------------=
   JOB DONE.
=------------------------------------------------------------------------------=
