
     Program BANDS v.6.4.1 starts on  8Jan2025 at 21:36:48 

     This program is part of the open-source Quantum ESPRESSO suite
     for quantum simulation of materials; please cite
         "P. Giannozzi et al., J. Phys.:Condens. Matter 21 395502 (2009);
         "P. Giannozzi et al., J. Phys.:Condens. Matter 29 465901 (2017);
          URL http://www.quantum-espresso.org", 
     in publications or presentations arising from this work. More details at
     http://www.quantum-espresso.org/quote

     Parallel version (MPI), running on     1 processors

     MPI processes distributed on     1 nodes

     Reading data from directory:
     ./out/aiida.save/

     IMPORTANT: XC functional enforced from input :
     Exchange-correlation      = PBE ( 1  4  3  4 0 0)
     Any further DFT definition will be discarded
     Please, verify this is what you really want


     G-vector sticks info
     --------------------
     sticks:   dense  smooth     PW     G-vecs:    dense   smooth      PW
     Sum        2209    1099    313               272959    96377   14675

     high-symmetry point:  0.0000 0.0000 0.0000   x coordinate   0.0000
     high-symmetry point:  0.0000 0.5774 0.0000   x coordinate   0.5774
     high-symmetry point:  0.3333 0.5773 0.0000   x coordinate   0.9107
     high-symmetry point:  0.0000 0.0000 0.0000   x coordinate   1.5773

     Plottable bands (eV) written to file hhk.bands.gnu
     Bands written to file hhk.bands

 **************************************************************************

                    xk=(   0.00000,   0.00000,   0.00000  )

     point group C_s (m)    
     there are  2 classes
     the character table:

       E     s    
A'     1.00  1.00
A''    1.00 -1.00

     the symmetry operations in each class and the name of the first element:

     E        1
                                                                 
     s        2
                                                                 

     Band symmetry, C_s (m)     point group:

     e(  1 -  1) =    -13.70058  eV     1   --> A'             
     e(  2 -  2) =    -10.54269  eV     1   --> A'             
     e(  3 -  3) =     -9.03960  eV     1   --> A''            
     e(  4 -  4) =     -9.03544  eV     1   --> A'             
     e(  5 -  5) =     -5.80015  eV     1   --> A'             
     e(  6 -  6) =     -5.52324  eV     1   --> A'             
     e(  7 -  7) =     -5.52064  eV     1   --> A''            
     e(  8 -  8) =     -3.49602  eV     1   --> A'             
     e(  9 -  9) =     -2.18233  eV     1   --> A''            
     e( 10 - 10) =     -2.17910  eV     1   --> A'             
     e( 11 - 11) =     -1.24541  eV     1   --> A'             
     e( 12 - 12) =      0.85674  eV     1   --> A'             

 **************************************************************************

 **************************************************************************

                    xk=(   0.00000,   0.01925,   0.00000  )

     point group C_1 (1)    
     there are  1 classes
     the character table:

       E    
A      1.00

     the symmetry operations in each class and the name of the first element:

     E        1
                                                                 

     Band symmetry, C_1 (1)     point group:

     e(  1 -  1) =    -13.69965  eV     1   --> A              
     e(  2 -  2) =    -10.54910  eV     1   --> A              
     e(  3 -  3) =     -9.03769  eV     1   --> A              
     e(  4 -  4) =     -9.03135  eV     1   --> A              
     e(  5 -  5) =     -5.79936  eV     1   --> A              
     e(  6 -  6) =     -5.52211  eV     1   --> A              
     e(  7 -  7) =     -5.51946  eV     1   --> A              
     e(  8 -  8) =     -3.49969  eV     1   --> A              
     e(  9 -  9) =     -2.18116  eV     1   --> A              
     e( 10 - 10) =     -2.17765  eV     1   --> A              
     e( 11 - 11) =     -1.24308  eV     1   --> A              
     e( 12 - 12) =      0.85845  eV     1   --> A              

 **************************************************************************

 **************************************************************************

                    xk=(   0.00000,   0.03849,   0.00000  )

     Band symmetry, C_1 (1)     point group:

     e(  1 -  1) =    -13.69686  eV     1   --> A              
     e(  2 -  2) =    -10.56798  eV     1   --> A              
     e(  3 -  3) =     -9.03919  eV     1   --> A              
     e(  4 -  4) =     -9.01224  eV     1   --> A              
     e(  5 -  5) =     -5.79705  eV     1   --> A              
     e(  6 -  6) =     -5.52217  eV     1   --> A              
     e(  7 -  7) =     -5.51247  eV     1   --> A              
     e(  8 -  8) =     -3.51055  eV     1   --> A              
     e(  9 -  9) =     -2.18233  eV     1   --> A              
     e( 10 - 10) =     -2.16877  eV     1   --> A              
     e( 11 - 11) =     -1.23618  eV     1   --> A              
     e( 12 - 12) =      0.86331  eV     1   --> A              

 **************************************************************************

 **************************************************************************

                    xk=(   0.00000,   0.05774,   0.00000  )

     Band symmetry, C_1 (1)     point group:

     e(  1 -  1) =    -13.69221  eV     1   --> A              
     e(  2 -  2) =    -10.59832  eV     1   --> A              
     e(  3 -  3) =     -9.04233  eV     1   --> A              
     e(  4 -  4) =     -8.98089  eV     1   --> A              
     e(  5 -  5) =     -5.79338  eV     1   --> A              
     e(  6 -  6) =     -5.52278  eV     1   --> A              
     e(  7 -  7) =     -5.50013  eV     1   --> A              
     e(  8 -  8) =     -3.52822  eV     1   --> A              
     e(  9 -  9) =     -2.18507  eV     1   --> A              
     e( 10 - 10) =     -2.15358  eV     1   --> A              
     e( 11 - 11) =     -1.22476  eV     1   --> A              
     e( 12 - 12) =      0.87042  eV     1   --> A              

 **************************************************************************

 **************************************************************************

                    xk=(   0.00000,   0.07698,   0.00000  )

     Band symmetry, C_1 (1)     point group:

     e(  1 -  1) =    -13.68572  eV     1   --> A              
     e(  2 -  2) =    -10.63867  eV     1   --> A              
     e(  3 -  3) =     -9.04673  eV     1   --> A              
     e(  4 -  4) =     -8.93908  eV     1   --> A              
     e(  5 -  5) =     -5.78860  eV     1   --> A              
     e(  6 -  6) =     -5.52326  eV     1   --> A              
     e(  7 -  7) =     -5.48288  eV     1   --> A              
     e(  8 -  8) =     -3.55208  eV     1   --> A              
     e(  9 -  9) =     -2.18893  eV     1   --> A              
     e( 10 - 10) =     -2.13306  eV     1   --> A              
     e( 11 - 11) =     -1.20901  eV     1   --> A              
     e( 12 - 12) =      0.87771  eV     1   --> A              

 **************************************************************************

 **************************************************************************

                    xk=(   0.00000,   0.09623,   0.00000  )

     Band symmetry, C_1 (1)     point group:

     e(  1 -  1) =    -13.67740  eV     1   --> A              
     e(  2 -  2) =    -10.68743  eV     1   --> A              
     e(  3 -  3) =     -9.05228  eV     1   --> A              
     e(  4 -  4) =     -8.88853  eV     1   --> A              
     e(  5 -  5) =     -5.78310  eV     1   --> A              
     e(  6 -  6) =     -5.52311  eV     1   --> A              
     e(  7 -  7) =     -5.46087  eV     1   --> A              
     e(  8 -  8) =     -3.58142  eV     1   --> A              
     e(  9 -  9) =     -2.19380  eV     1   --> A              
     e( 10 - 10) =     -2.10800  eV     1   --> A              
     e( 11 - 11) =     -1.18921  eV     1   --> A              
     e( 12 - 12) =      0.88082  eV     1   --> A              

 **************************************************************************

 **************************************************************************

                    xk=(   0.00000,   0.11547,   0.00000  )

     Band symmetry, C_1 (1)     point group:

     e(  1 -  1) =    -13.66728  eV     1   --> A              
     e(  2 -  2) =    -10.74300  eV     1   --> A              
     e(  3 -  3) =     -9.05890  eV     1   --> A              
     e(  4 -  4) =     -8.83090  eV     1   --> A              
     e(  5 -  5) =     -5.77741  eV     1   --> A              
     e(  6 -  6) =     -5.52170  eV     1   --> A              
     e(  7 -  7) =     -5.43426  eV     1   --> A              
     e(  8 -  8) =     -3.61543  eV     1   --> A              
     e(  9 -  9) =     -2.19961  eV     1   --> A              
     e( 10 - 10) =     -2.07919  eV     1   --> A              
     e( 11 - 11) =     -1.16574  eV     1   --> A              
     e( 12 - 12) =      0.87134  eV     1   --> A              

 **************************************************************************

 **************************************************************************

                    xk=(   0.00000,   0.13472,   0.00000  )

     Band symmetry, C_1 (1)     point group:

     e(  1 -  1) =    -13.65538  eV     1   --> A              
     e(  2 -  2) =    -10.80392  eV     1   --> A              
     e(  3 -  3) =     -9.06648  eV     1   --> A              
     e(  4 -  4) =     -8.76776  eV     1   --> A              
     e(  5 -  5) =     -5.77214  eV     1   --> A              
     e(  6 -  6) =     -5.51832  eV     1   --> A              
     e(  7 -  7) =     -5.40323  eV     1   --> A              
     e(  8 -  8) =     -3.65327  eV     1   --> A              
     e(  9 -  9) =     -2.20626  eV     1   --> A              
     e( 10 - 10) =     -2.04743  eV     1   --> A              
     e( 11 - 11) =     -1.13909  eV     1   --> A              
     e( 12 - 12) =      0.83870  eV     1   --> A              

 **************************************************************************

 **************************************************************************

                    xk=(   0.00000,   0.15396,   0.00000  )

     Band symmetry, C_1 (1)     point group:

     e(  1 -  1) =    -13.64174  eV     1   --> A              
     e(  2 -  2) =    -10.86891  eV     1   --> A              
     e(  3 -  3) =     -9.07492  eV     1   --> A              
     e(  4 -  4) =     -8.70045  eV     1   --> A              
     e(  5 -  5) =     -5.76795  eV     1   --> A              
     e(  6 -  6) =     -5.51221  eV     1   --> A              
     e(  7 -  7) =     -5.36798  eV     1   --> A              
     e(  8 -  8) =     -3.69413  eV     1   --> A              
     e(  9 -  9) =     -2.21363  eV     1   --> A              
     e( 10 - 10) =     -2.01351  eV     1   --> A              
     e( 11 - 11) =     -1.10990  eV     1   --> A              
     e( 12 - 12) =      0.77936  eV     1   --> A              

 **************************************************************************

 **************************************************************************

                    xk=(   0.00000,   0.17321,   0.00000  )

     Band symmetry, C_1 (1)     point group:

     e(  1 -  1) =    -13.62639  eV     1   --> A              
     e(  2 -  2) =    -10.93691  eV     1   --> A              
     e(  3 -  3) =     -9.08409  eV     1   --> A              
     e(  4 -  4) =     -8.63016  eV     1   --> A              
     e(  5 -  5) =     -5.76544  eV     1   --> A              
     e(  6 -  6) =     -5.50268  eV     1   --> A              
     e(  7 -  7) =     -5.32872  eV     1   --> A              
     e(  8 -  8) =     -3.73721  eV     1   --> A              
     e(  9 -  9) =     -2.22163  eV     1   --> A              
     e( 10 - 10) =     -1.97818  eV     1   --> A              
     e( 11 - 11) =     -1.07906  eV     1   --> A              
     e( 12 - 12) =      0.69874  eV     1   --> A              

 **************************************************************************

 **************************************************************************

                    xk=(   0.00000,   0.19245,   0.00000  )

     Band symmetry, C_1 (1)     point group:

     e(  1 -  1) =    -13.60939  eV     1   --> A              
     e(  2 -  2) =    -11.00701  eV     1   --> A              
     e(  3 -  3) =     -9.09388  eV     1   --> A              
     e(  4 -  4) =     -8.55791  eV     1   --> A              
     e(  5 -  5) =     -5.76500  eV     1   --> A              
     e(  6 -  6) =     -5.48930  eV     1   --> A              
     e(  7 -  7) =     -5.28573  eV     1   --> A              
     e(  8 -  8) =     -3.78178  eV     1   --> A              
     e(  9 -  9) =     -2.23014  eV     1   --> A              
     e( 10 - 10) =     -1.94210  eV     1   --> A              
     e( 11 - 11) =     -1.04775  eV     1   --> A              
     e( 12 - 12) =      0.60430  eV     1   --> A              

 **************************************************************************

 **************************************************************************

                    xk=(   0.00000,   0.21170,   0.00000  )

     Band symmetry, C_1 (1)     point group:

     e(  1 -  1) =    -13.59079  eV     1   --> A              
     e(  2 -  2) =    -11.07847  eV     1   --> A              
     e(  3 -  3) =     -9.10415  eV     1   --> A              
     e(  4 -  4) =     -8.48457  eV     1   --> A              
     e(  5 -  5) =     -5.76675  eV     1   --> A              
     e(  6 -  6) =     -5.47190  eV     1   --> A              
     e(  7 -  7) =     -5.23929  eV     1   --> A              
     e(  8 -  8) =     -3.82709  eV     1   --> A              
     e(  9 -  9) =     -2.23903  eV     1   --> A              
     e( 10 - 10) =     -1.90591  eV     1   --> A              
     e( 11 - 11) =     -1.01753  eV     1   --> A              
     e( 12 - 12) =      0.50267  eV     1   --> A              

 **************************************************************************

 **************************************************************************

                    xk=(   0.00000,   0.23094,   0.00000  )

     Band symmetry, C_1 (1)     point group:

     e(  1 -  1) =    -13.57066  eV     1   --> A              
     e(  2 -  2) =    -11.15064  eV     1   --> A              
     e(  3 -  3) =     -9.11478  eV     1   --> A              
     e(  4 -  4) =     -8.41093  eV     1   --> A              
     e(  5 -  5) =     -5.77058  eV     1   --> A              
     e(  6 -  6) =     -5.45066  eV     1   --> A              
     e(  7 -  7) =     -5.18970  eV     1   --> A              
     e(  8 -  8) =     -3.87247  eV     1   --> A              
     e(  9 -  9) =     -2.24818  eV     1   --> A              
     e( 10 - 10) =     -1.87020  eV     1   --> A              
     e( 11 - 11) =     -0.99047  eV     1   --> A              
     e( 12 - 12) =      0.39938  eV     1   --> A              

 **************************************************************************

 **************************************************************************

                    xk=(   0.00000,   0.25019,   0.00000  )

     Band symmetry, C_1 (1)     point group:

     e(  1 -  1) =    -13.54909  eV     1   --> A              
     e(  2 -  2) =    -11.22298  eV     1   --> A              
     e(  3 -  3) =     -9.12562  eV     1   --> A              
     e(  4 -  4) =     -8.33764  eV     1   --> A              
     e(  5 -  5) =     -5.77614  eV     1   --> A              
     e(  6 -  6) =     -5.42599  eV     1   --> A              
     e(  7 -  7) =     -5.13731  eV     1   --> A              
     e(  8 -  8) =     -3.91722  eV     1   --> A              
     e(  9 -  9) =     -2.25745  eV     1   --> A              
     e( 10 - 10) =     -1.83550  eV     1   --> A              
     e( 11 - 11) =     -0.96924  eV     1   --> A              
     e( 12 - 12) =      0.27678  eV     1   --> A              

 **************************************************************************

 **************************************************************************

                    xk=(   0.00000,   0.26943,   0.00000  )

     Band symmetry, C_1 (1)     point group:

     e(  1 -  1) =    -13.52618  eV     1   --> A              
     e(  2 -  2) =    -11.29502  eV     1   --> A              
     e(  3 -  3) =     -9.13658  eV     1   --> A              
     e(  4 -  4) =     -8.26533  eV     1   --> A              
     e(  5 -  5) =     -5.78302  eV     1   --> A              
     e(  6 -  6) =     -5.39850  eV     1   --> A              
     e(  7 -  7) =     -5.08250  eV     1   --> A              
     e(  8 -  8) =     -3.96065  eV     1   --> A              
     e(  9 -  9) =     -2.26673  eV     1   --> A              
     e( 10 - 10) =     -1.80237  eV     1   --> A              
     e( 11 - 11) =     -0.95707  eV     1   --> A              
     e( 12 - 12) =      0.14400  eV     1   --> A              

 **************************************************************************

 **************************************************************************

                    xk=(   0.00000,   0.28868,   0.00000  )

     Band symmetry, C_1 (1)     point group:

     e(  1 -  1) =    -13.50203  eV     1   --> A              
     e(  2 -  2) =    -11.36634  eV     1   --> A              
     e(  3 -  3) =     -9.14750  eV     1   --> A              
     e(  4 -  4) =     -8.19454  eV     1   --> A              
     e(  5 -  5) =     -5.79080  eV     1   --> A              
     e(  6 -  6) =     -5.36886  eV     1   --> A              
     e(  7 -  7) =     -5.02568  eV     1   --> A              
     e(  8 -  8) =     -4.00207  eV     1   --> A              
     e(  9 -  9) =     -2.27589  eV     1   --> A              
     e( 10 - 10) =     -1.77138  eV     1   --> A              
     e( 11 - 11) =     -0.95745  eV     1   --> A              
     e( 12 - 12) =      0.01182  eV     1   --> A              

 **************************************************************************

 **************************************************************************

                    xk=(   0.00000,   0.30792,   0.00000  )

     Band symmetry, C_1 (1)     point group:

     e(  1 -  1) =    -13.47680  eV     1   --> A              
     e(  2 -  2) =    -11.43652  eV     1   --> A              
     e(  3 -  3) =     -9.15830  eV     1   --> A              
     e(  4 -  4) =     -8.12577  eV     1   --> A              
     e(  5 -  5) =     -5.79907  eV     1   --> A              
     e(  6 -  6) =     -5.33786  eV     1   --> A              
     e(  7 -  7) =     -4.96728  eV     1   --> A              
     e(  8 -  8) =     -4.04076  eV     1   --> A              
     e(  9 -  9) =     -2.28481  eV     1   --> A              
     e( 10 - 10) =     -1.74319  eV     1   --> A              
     e( 11 - 11) =     -0.97318  eV     1   --> A              
     e( 12 - 12) =     -0.11865  eV     1   --> A              

 **************************************************************************

 **************************************************************************

                    xk=(   0.00000,   0.32717,   0.00000  )

     Band symmetry, C_1 (1)     point group:

     e(  1 -  1) =    -13.45063  eV     1   --> A              
     e(  2 -  2) =    -11.50521  eV     1   --> A              
     e(  3 -  3) =     -9.16883  eV     1   --> A              
     e(  4 -  4) =     -8.05951  eV     1   --> A              
     e(  5 -  5) =     -5.80750  eV     1   --> A              
     e(  6 -  6) =     -5.30631  eV     1   --> A              
     e(  7 -  7) =     -4.90784  eV     1   --> A              
     e(  8 -  8) =     -4.07598  eV     1   --> A              
     e(  9 -  9) =     -2.29336  eV     1   --> A              
     e( 10 - 10) =     -1.71863  eV     1   --> A              
     e( 11 - 11) =     -1.00516  eV     1   --> A              
     e( 12 - 12) =     -0.24645  eV     1   --> A              

 **************************************************************************

 **************************************************************************

                    xk=(   0.00000,   0.34641,   0.00000  )

     Band symmetry, C_1 (1)     point group:

     e(  1 -  1) =    -13.42374  eV     1   --> A              
     e(  2 -  2) =    -11.57202  eV     1   --> A              
     e(  3 -  3) =     -9.17902  eV     1   --> A              
     e(  4 -  4) =     -7.99620  eV     1   --> A              
     e(  5 -  5) =     -5.81578  eV     1   --> A              
     e(  6 -  6) =     -5.27509  eV     1   --> A              
     e(  7 -  7) =     -4.84790  eV     1   --> A              
     e(  8 -  8) =     -4.10703  eV     1   --> A              
     e(  9 -  9) =     -2.30145  eV     1   --> A              
     e( 10 - 10) =     -1.69879  eV     1   --> A              
     e( 11 - 11) =     -1.05138  eV     1   --> A              
     e( 12 - 12) =     -0.37065  eV     1   --> A              

 **************************************************************************

 **************************************************************************

                    xk=(   0.00000,   0.36566,   0.00000  )

     Band symmetry, C_1 (1)     point group:

     e(  1 -  1) =    -13.39635  eV     1   --> A              
     e(  2 -  2) =    -11.63656  eV     1   --> A              
     e(  3 -  3) =     -9.18875  eV     1   --> A              
     e(  4 -  4) =     -7.93625  eV     1   --> A              
     e(  5 -  5) =     -5.82370  eV     1   --> A              
     e(  6 -  6) =     -5.24509  eV     1   --> A              
     e(  7 -  7) =     -4.78806  eV     1   --> A              
     e(  8 -  8) =     -4.13321  eV     1   --> A              
     e(  9 -  9) =     -2.30895  eV     1   --> A              
     e( 10 - 10) =     -1.68524  eV     1   --> A              
     e( 11 - 11) =     -1.10718  eV     1   --> A              
     e( 12 - 12) =     -0.49044  eV     1   --> A              

 **************************************************************************

 **************************************************************************

                    xk=(   0.00000,   0.38490,   0.00000  )

     Band symmetry, C_1 (1)     point group:

     e(  1 -  1) =    -13.36874  eV     1   --> A              
     e(  2 -  2) =    -11.69844  eV     1   --> A              
     e(  3 -  3) =     -9.19792  eV     1   --> A              
     e(  4 -  4) =     -7.88005  eV     1   --> A              
     e(  5 -  5) =     -5.83104  eV     1   --> A              
     e(  6 -  6) =     -5.21720  eV     1   --> A              
     e(  7 -  7) =     -4.72899  eV     1   --> A              
     e(  8 -  8) =     -4.15393  eV     1   --> A              
     e(  9 -  9) =     -2.31578  eV     1   --> A              
     e( 10 - 10) =     -1.68011  eV     1   --> A              
     e( 11 - 11) =     -1.16608  eV     1   --> A              
     e( 12 - 12) =     -0.60489  eV     1   --> A              

 **************************************************************************

 **************************************************************************

                    xk=(   0.00000,   0.40415,   0.00000  )

     Band symmetry, C_1 (1)     point group:

     e(  1 -  1) =    -13.34124  eV     1   --> A              
     e(  2 -  2) =    -11.75721  eV     1   --> A              
     e(  3 -  3) =     -9.20647  eV     1   --> A              
     e(  4 -  4) =     -7.82798  eV     1   --> A              
     e(  5 -  5) =     -5.83770  eV     1   --> A              
     e(  6 -  6) =     -5.19219  eV     1   --> A              
     e(  7 -  7) =     -4.67143  eV     1   --> A              
     e(  8 -  8) =     -4.16880  eV     1   --> A              
     e(  9 -  9) =     -2.32188  eV     1   --> A              
     e( 10 - 10) =     -1.68602  eV     1   --> A              
     e( 11 - 11) =     -1.22122  eV     1   --> A              
     e( 12 - 12) =     -0.71318  eV     1   --> A              

 **************************************************************************

 **************************************************************************

                    xk=(   0.00000,   0.42339,   0.00000  )

     Band symmetry, C_1 (1)     point group:

     e(  1 -  1) =    -13.31426  eV     1   --> A              
     e(  2 -  2) =    -11.81238  eV     1   --> A              
     e(  3 -  3) =     -9.21432  eV     1   --> A              
     e(  4 -  4) =     -7.78038  eV     1   --> A              
     e(  5 -  5) =     -5.84358  eV     1   --> A              
     e(  6 -  6) =     -5.17069  eV     1   --> A              
     e(  7 -  7) =     -4.61623  eV     1   --> A              
     e(  8 -  8) =     -4.17770  eV     1   --> A              
     e(  9 -  9) =     -2.32717  eV     1   --> A              
     e( 10 - 10) =     -1.70517  eV     1   --> A              
     e( 11 - 11) =     -1.26662  eV     1   --> A              
     e( 12 - 12) =     -0.81437  eV     1   --> A              

 **************************************************************************

 **************************************************************************

                    xk=(   0.00000,   0.44264,   0.00000  )

     Band symmetry, C_1 (1)     point group:

     e(  1 -  1) =    -13.28825  eV     1   --> A              
     e(  2 -  2) =    -11.86343  eV     1   --> A              
     e(  3 -  3) =     -9.22141  eV     1   --> A              
     e(  4 -  4) =     -7.73756  eV     1   --> A              
     e(  5 -  5) =     -5.84863  eV     1   --> A              
     e(  6 -  6) =     -5.15304  eV     1   --> A              
     e(  7 -  7) =     -4.56424  eV     1   --> A              
     e(  8 -  8) =     -4.18091  eV     1   --> A              
     e(  9 -  9) =     -2.33162  eV     1   --> A              
     e( 10 - 10) =     -1.73750  eV     1   --> A              
     e( 11 - 11) =     -1.29903  eV     1   --> A              
     e( 12 - 12) =     -0.90741  eV     1   --> A              

 **************************************************************************

 **************************************************************************

                    xk=(   0.00000,   0.46188,   0.00000  )

     Band symmetry, C_1 (1)     point group:

     e(  1 -  1) =    -13.26375  eV     1   --> A              
     e(  2 -  2) =    -11.90974  eV     1   --> A              
     e(  3 -  3) =     -9.22766  eV     1   --> A              
     e(  4 -  4) =     -7.69983  eV     1   --> A              
     e(  5 -  5) =     -5.85286  eV     1   --> A              
     e(  6 -  6) =     -5.13929  eV     1   --> A              
     e(  7 -  7) =     -4.51642  eV     1   --> A              
     e(  8 -  8) =     -4.17917  eV     1   --> A              
     e(  9 -  9) =     -2.33524  eV     1   --> A              
     e( 10 - 10) =     -1.77973  eV     1   --> A              
     e( 11 - 11) =     -1.31906  eV     1   --> A              
     e( 12 - 12) =     -0.99130  eV     1   --> A              

 **************************************************************************

 **************************************************************************

                    xk=(   0.00000,   0.48113,   0.00000  )

     Band symmetry, C_1 (1)     point group:

     e(  1 -  1) =    -13.24136  eV     1   --> A              
     e(  2 -  2) =    -11.95067  eV     1   --> A              
     e(  3 -  3) =     -9.23304  eV     1   --> A              
     e(  4 -  4) =     -7.66744  eV     1   --> A              
     e(  5 -  5) =     -5.85628  eV     1   --> A              
     e(  6 -  6) =     -5.12916  eV     1   --> A              
     e(  7 -  7) =     -4.47372  eV     1   --> A              
     e(  8 -  8) =     -4.17363  eV     1   --> A              
     e(  9 -  9) =     -2.33804  eV     1   --> A              
     e( 10 - 10) =     -1.82639  eV     1   --> A              
     e( 11 - 11) =     -1.32976  eV     1   --> A              
     e( 12 - 12) =     -1.06493  eV     1   --> A              

 **************************************************************************

 **************************************************************************

                    xk=(   0.00000,   0.50037,   0.00000  )

     Band symmetry, C_1 (1)     point group:

     e(  1 -  1) =    -13.22173  eV     1   --> A              
     e(  2 -  2) =    -11.98552  eV     1   --> A              
     e(  3 -  3) =     -9.23750  eV     1   --> A              
     e(  4 -  4) =     -7.64060  eV     1   --> A              
     e(  5 -  5) =     -5.85893  eV     1   --> A              
     e(  6 -  6) =     -5.12215  eV     1   --> A              
     e(  7 -  7) =     -4.43710  eV     1   --> A              
     e(  8 -  8) =     -4.16577  eV     1   --> A              
     e(  9 -  9) =     -2.34009  eV     1   --> A              
     e( 10 - 10) =     -1.87188  eV     1   --> A              
     e( 11 - 11) =     -1.33457  eV     1   --> A              
     e( 12 - 12) =     -1.12715  eV     1   --> A              

 **************************************************************************

 **************************************************************************

                    xk=(   0.00000,   0.51962,   0.00000  )

     Band symmetry, C_1 (1)     point group:

     e(  1 -  1) =    -13.20554  eV     1   --> A              
     e(  2 -  2) =    -12.01359  eV     1   --> A              
     e(  3 -  3) =     -9.24100  eV     1   --> A              
     e(  4 -  4) =     -7.61954  eV     1   --> A              
     e(  5 -  5) =     -5.86090  eV     1   --> A              
     e(  6 -  6) =     -5.11763  eV     1   --> A              
     e(  7 -  7) =     -4.40750  eV     1   --> A              
     e(  8 -  8) =     -4.15730  eV     1   --> A              
     e(  9 -  9) =     -2.34151  eV     1   --> A              
     e( 10 - 10) =     -1.91173  eV     1   --> A              
     e( 11 - 11) =     -1.33615  eV     1   --> A              
     e( 12 - 12) =     -1.17697  eV     1   --> A              

 **************************************************************************

 **************************************************************************

                    xk=(   0.00000,   0.53886,   0.00000  )

     Band symmetry, C_1 (1)     point group:

     e(  1 -  1) =    -13.19342  eV     1   --> A              
     e(  2 -  2) =    -12.03421  eV     1   --> A              
     e(  3 -  3) =     -9.24353  eV     1   --> A              
     e(  4 -  4) =     -7.60438  eV     1   --> A              
     e(  5 -  5) =     -5.86224  eV     1   --> A              
     e(  6 -  6) =     -5.11496  eV     1   --> A              
     e(  7 -  7) =     -4.38569  eV     1   --> A              
     e(  8 -  8) =     -4.14982  eV     1   --> A              
     e(  9 -  9) =     -2.34240  eV     1   --> A              
     e( 10 - 10) =     -1.94247  eV     1   --> A              
     e( 11 - 11) =     -1.33625  eV     1   --> A              
     e( 12 - 12) =     -1.21333  eV     1   --> A              

 **************************************************************************

 **************************************************************************

                    xk=(   0.00000,   0.55811,   0.00000  )

     Band symmetry, C_1 (1)     point group:

     e(  1 -  1) =    -13.18591  eV     1   --> A              
     e(  2 -  2) =    -12.04682  eV     1   --> A              
     e(  3 -  3) =     -9.24505  eV     1   --> A              
     e(  4 -  4) =     -7.59524  eV     1   --> A              
     e(  5 -  5) =     -5.86303  eV     1   --> A              
     e(  6 -  6) =     -5.11359  eV     1   --> A              
     e(  7 -  7) =     -4.37235  eV     1   --> A              
     e(  8 -  8) =     -4.14472  eV     1   --> A              
     e(  9 -  9) =     -2.34288  eV     1   --> A              
     e( 10 - 10) =     -1.96190  eV     1   --> A              
     e( 11 - 11) =     -1.33594  eV     1   --> A              
     e( 12 - 12) =     -1.23551  eV     1   --> A              

 **************************************************************************

 **************************************************************************

                    xk=(   0.00000,   0.57735,   0.00000  )

     Band symmetry, C_1 (1)     point group:

     e(  1 -  1) =    -13.18336  eV     1   --> A              
     e(  2 -  2) =    -12.05107  eV     1   --> A              
     e(  3 -  3) =     -9.24555  eV     1   --> A              
     e(  4 -  4) =     -7.59218  eV     1   --> A              
     e(  5 -  5) =     -5.86328  eV     1   --> A              
     e(  6 -  6) =     -5.11317  eV     1   --> A              
     e(  7 -  7) =     -4.36785  eV     1   --> A              
     e(  8 -  8) =     -4.14291  eV     1   --> A              
     e(  9 -  9) =     -2.34302  eV     1   --> A              
     e( 10 - 10) =     -1.96850  eV     1   --> A              
     e( 11 - 11) =     -1.33578  eV     1   --> A              
     e( 12 - 12) =     -1.24295  eV     1   --> A              

 **************************************************************************

 **************************************************************************

                    xk=(   0.01111,   0.57735,   0.00000  )

     Band symmetry, C_1 (1)     point group:

     e(  1 -  1) =    -13.18310  eV     1   --> A              
     e(  2 -  2) =    -12.05148  eV     1   --> A              
     e(  3 -  3) =     -9.24611  eV     1   --> A              
     e(  4 -  4) =     -7.59059  eV     1   --> A              
     e(  5 -  5) =     -5.86448  eV     1   --> A              
     e(  6 -  6) =     -5.11263  eV     1   --> A              
     e(  7 -  7) =     -4.36755  eV     1   --> A              
     e(  8 -  8) =     -4.14342  eV     1   --> A              
     e(  9 -  9) =     -2.34698  eV     1   --> A              
     e( 10 - 10) =     -1.96409  eV     1   --> A              
     e( 11 - 11) =     -1.33573  eV     1   --> A              
     e( 12 - 12) =     -1.24195  eV     1   --> A              

 **************************************************************************

 **************************************************************************

                    xk=(   0.02222,   0.57735,   0.00000  )

     Band symmetry, C_1 (1)     point group:

     e(  1 -  1) =    -13.18230  eV     1   --> A              
     e(  2 -  2) =    -12.05268  eV     1   --> A              
     e(  3 -  3) =     -9.24776  eV     1   --> A              
     e(  4 -  4) =     -7.58581  eV     1   --> A              
     e(  5 -  5) =     -5.86807  eV     1   --> A              
     e(  6 -  6) =     -5.11100  eV     1   --> A              
     e(  7 -  7) =     -4.36668  eV     1   --> A              
     e(  8 -  8) =     -4.14494  eV     1   --> A              
     e(  9 -  9) =     -2.35832  eV     1   --> A              
     e( 10 - 10) =     -1.95136  eV     1   --> A              
     e( 11 - 11) =     -1.33553  eV     1   --> A              
     e( 12 - 12) =     -1.23898  eV     1   --> A              

 **************************************************************************

 **************************************************************************

                    xk=(   0.03333,   0.57734,   0.00000  )

     Band symmetry, C_1 (1)     point group:

     e(  1 -  1) =    -13.18098  eV     1   --> A              
     e(  2 -  2) =    -12.05469  eV     1   --> A              
     e(  3 -  3) =     -9.25049  eV     1   --> A              
     e(  4 -  4) =     -7.57789  eV     1   --> A              
     e(  5 -  5) =     -5.87403  eV     1   --> A              
     e(  6 -  6) =     -5.10828  eV     1   --> A              
     e(  7 -  7) =     -4.36526  eV     1   --> A              
     e(  8 -  8) =     -4.14748  eV     1   --> A              
     e(  9 -  9) =     -2.37573  eV     1   --> A              
     e( 10 - 10) =     -1.93164  eV     1   --> A              
     e( 11 - 11) =     -1.33505  eV     1   --> A              
     e( 12 - 12) =     -1.23420  eV     1   --> A              

 **************************************************************************

 **************************************************************************

                    xk=(   0.04444,   0.57734,   0.00000  )

     Band symmetry, C_1 (1)     point group:

     e(  1 -  1) =    -13.17914  eV     1   --> A              
     e(  2 -  2) =    -12.05749  eV     1   --> A              
     e(  3 -  3) =     -9.25423  eV     1   --> A              
     e(  4 -  4) =     -7.56691  eV     1   --> A              
     e(  5 -  5) =     -5.88233  eV     1   --> A              
     e(  6 -  6) =     -5.10446  eV     1   --> A              
     e(  7 -  7) =     -4.36334  eV     1   --> A              
     e(  8 -  8) =     -4.15100  eV     1   --> A              
     e(  9 -  9) =     -2.39764  eV     1   --> A              
     e( 10 - 10) =     -1.90645  eV     1   --> A              
     e( 11 - 11) =     -1.33411  eV     1   --> A              
     e( 12 - 12) =     -1.22780  eV     1   --> A              

 **************************************************************************

 **************************************************************************

                    xk=(   0.05555,   0.57734,   0.00000  )

     Band symmetry, C_1 (1)     point group:

     e(  1 -  1) =    -13.17678  eV     1   --> A              
     e(  2 -  2) =    -12.06106  eV     1   --> A              
     e(  3 -  3) =     -9.25891  eV     1   --> A              
     e(  4 -  4) =     -7.55295  eV     1   --> A              
     e(  5 -  5) =     -5.89292  eV     1   --> A              
     e(  6 -  6) =     -5.09952  eV     1   --> A              
     e(  7 -  7) =     -4.36102  eV     1   --> A              
     e(  8 -  8) =     -4.15548  eV     1   --> A              
     e(  9 -  9) =     -2.42269  eV     1   --> A              
     e( 10 - 10) =     -1.87719  eV     1   --> A              
     e( 11 - 11) =     -1.33255  eV     1   --> A              
     e( 12 - 12) =     -1.22002  eV     1   --> A              

 **************************************************************************

 **************************************************************************

                    xk=(   0.06666,   0.57734,   0.00000  )

     Band symmetry, C_1 (1)     point group:

     e(  1 -  1) =    -13.17393  eV     1   --> A              
     e(  2 -  2) =    -12.06538  eV     1   --> A              
     e(  3 -  3) =     -9.26445  eV     1   --> A              
     e(  4 -  4) =     -7.53614  eV     1   --> A              
     e(  5 -  5) =     -5.90574  eV     1   --> A              
     e(  6 -  6) =     -5.09345  eV     1   --> A              
     e(  7 -  7) =     -4.35836  eV     1   --> A              
     e(  8 -  8) =     -4.16089  eV     1   --> A              
     e(  9 -  9) =     -2.44978  eV     1   --> A              
     e( 10 - 10) =     -1.84489  eV     1   --> A              
     e( 11 - 11) =     -1.33017  eV     1   --> A              
     e( 12 - 12) =     -1.21108  eV     1   --> A              

 **************************************************************************

 **************************************************************************

                    xk=(   0.07777,   0.57734,   0.00000  )

     Band symmetry, C_1 (1)     point group:

     e(  1 -  1) =    -13.17058  eV     1   --> A              
     e(  2 -  2) =    -12.07043  eV     1   --> A              
     e(  3 -  3) =     -9.27073  eV     1   --> A              
     e(  4 -  4) =     -7.51659  eV     1   --> A              
     e(  5 -  5) =     -5.92071  eV     1   --> A              
     e(  6 -  6) =     -5.08623  eV     1   --> A              
     e(  7 -  7) =     -4.35549  eV     1   --> A              
     e(  8 -  8) =     -4.16717  eV     1   --> A              
     e(  9 -  9) =     -2.47810  eV     1   --> A              
     e( 10 - 10) =     -1.81033  eV     1   --> A              
     e( 11 - 11) =     -1.32684  eV     1   --> A              
     e( 12 - 12) =     -1.20114  eV     1   --> A              

 **************************************************************************

 **************************************************************************

                    xk=(   0.08888,   0.57733,   0.00000  )

     Band symmetry, C_1 (1)     point group:

     e(  1 -  1) =    -13.16676  eV     1   --> A              
     e(  2 -  2) =    -12.07618  eV     1   --> A              
     e(  3 -  3) =     -9.27766  eV     1   --> A              
     e(  4 -  4) =     -7.49446  eV     1   --> A              
     e(  5 -  5) =     -5.93776  eV     1   --> A              
     e(  6 -  6) =     -5.07786  eV     1   --> A              
     e(  7 -  7) =     -4.35255  eV     1   --> A              
     e(  8 -  8) =     -4.17426  eV     1   --> A              
     e(  9 -  9) =     -2.50708  eV     1   --> A              
     e( 10 - 10) =     -1.77408  eV     1   --> A              
     e( 11 - 11) =     -1.32245  eV     1   --> A              
     e( 12 - 12) =     -1.19043  eV     1   --> A              

 **************************************************************************

 **************************************************************************

                    xk=(   0.09999,   0.57733,   0.00000  )

     Band symmetry, C_1 (1)     point group:

     e(  1 -  1) =    -13.16249  eV     1   --> A              
     e(  2 -  2) =    -12.08259  eV     1   --> A              
     e(  3 -  3) =     -9.28510  eV     1   --> A              
     e(  4 -  4) =     -7.46990  eV     1   --> A              
     e(  5 -  5) =     -5.95678  eV     1   --> A              
     e(  6 -  6) =     -5.06831  eV     1   --> A              
     e(  7 -  7) =     -4.34968  eV     1   --> A              
     e(  8 -  8) =     -4.18206  eV     1   --> A              
     e(  9 -  9) =     -2.53627  eV     1   --> A              
     e( 10 - 10) =     -1.73650  eV     1   --> A              
     e( 11 - 11) =     -1.31690  eV     1   --> A              
     e( 12 - 12) =     -1.17904  eV     1   --> A              

 **************************************************************************

 **************************************************************************

                    xk=(   0.11110,   0.57733,   0.00000  )

     Band symmetry, C_1 (1)     point group:

     e(  1 -  1) =    -13.15779  eV     1   --> A              
     e(  2 -  2) =    -12.08963  eV     1   --> A              
     e(  3 -  3) =     -9.29296  eV     1   --> A              
     e(  4 -  4) =     -7.44308  eV     1   --> A              
     e(  5 -  5) =     -5.97769  eV     1   --> A              
     e(  6 -  6) =     -5.05759  eV     1   --> A              
     e(  7 -  7) =     -4.34708  eV     1   --> A              
     e(  8 -  8) =     -4.19046  eV     1   --> A              
     e(  9 -  9) =     -2.56534  eV     1   --> A              
     e( 10 - 10) =     -1.69790  eV     1   --> A              
     e( 11 - 11) =     -1.31014  eV     1   --> A              
     e( 12 - 12) =     -1.16713  eV     1   --> A              

 **************************************************************************

 **************************************************************************

                    xk=(   0.12221,   0.57733,   0.00000  )

     Band symmetry, C_1 (1)     point group:

     e(  1 -  1) =    -13.15268  eV     1   --> A              
     e(  2 -  2) =    -12.09724  eV     1   --> A              
     e(  3 -  3) =     -9.30112  eV     1   --> A              
     e(  4 -  4) =     -7.41417  eV     1   --> A              
     e(  5 -  5) =     -6.00040  eV     1   --> A              
     e(  6 -  6) =     -5.04569  eV     1   --> A              
     e(  7 -  7) =     -4.34498  eV     1   --> A              
     e(  8 -  8) =     -4.19929  eV     1   --> A              
     e(  9 -  9) =     -2.59405  eV     1   --> A              
     e( 10 - 10) =     -1.65856  eV     1   --> A              
     e( 11 - 11) =     -1.30214  eV     1   --> A              
     e( 12 - 12) =     -1.15481  eV     1   --> A              

 **************************************************************************

 **************************************************************************

                    xk=(   0.13332,   0.57733,   0.00000  )

     Band symmetry, C_1 (1)     point group:

     e(  1 -  1) =    -13.14721  eV     1   --> A              
     e(  2 -  2) =    -12.10539  eV     1   --> A              
     e(  3 -  3) =     -9.30946  eV     1   --> A              
     e(  4 -  4) =     -7.38335  eV     1   --> A              
     e(  5 -  5) =     -6.02478  eV     1   --> A              
     e(  6 -  6) =     -5.03261  eV     1   --> A              
     e(  7 -  7) =     -4.34365  eV     1   --> A              
     e(  8 -  8) =     -4.20836  eV     1   --> A              
     e(  9 -  9) =     -2.62218  eV     1   --> A              
     e( 10 - 10) =     -1.61863  eV     1   --> A              
     e( 11 - 11) =     -1.29288  eV     1   --> A              
     e( 12 - 12) =     -1.14216  eV     1   --> A              

 **************************************************************************

 **************************************************************************

                    xk=(   0.14443,   0.57733,   0.00000  )

     Band symmetry, C_1 (1)     point group:

     e(  1 -  1) =    -13.14139  eV     1   --> A              
     e(  2 -  2) =    -12.11400  eV     1   --> A              
     e(  3 -  3) =     -9.31786  eV     1   --> A              
     e(  4 -  4) =     -7.35079  eV     1   --> A              
     e(  5 -  5) =     -6.05074  eV     1   --> A              
     e(  6 -  6) =     -5.01837  eV     1   --> A              
     e(  7 -  7) =     -4.34340  eV     1   --> A              
     e(  8 -  8) =     -4.21737  eV     1   --> A              
     e(  9 -  9) =     -2.64956  eV     1   --> A              
     e( 10 - 10) =     -1.57830  eV     1   --> A              
     e( 11 - 11) =     -1.28232  eV     1   --> A              
     e( 12 - 12) =     -1.12923  eV     1   --> A              

 **************************************************************************

 **************************************************************************

                    xk=(   0.15554,   0.57732,   0.00000  )

     Band symmetry, C_1 (1)     point group:

     e(  1 -  1) =    -13.13527  eV     1   --> A              
     e(  2 -  2) =    -12.12302  eV     1   --> A              
     e(  3 -  3) =     -9.32624  eV     1   --> A              
     e(  4 -  4) =     -7.31666  eV     1   --> A              
     e(  5 -  5) =     -6.07816  eV     1   --> A              
     e(  6 -  6) =     -5.00297  eV     1   --> A              
     e(  7 -  7) =     -4.34464  eV     1   --> A              
     e(  8 -  8) =     -4.22599  eV     1   --> A              
     e(  9 -  9) =     -2.67605  eV     1   --> A              
     e( 10 - 10) =     -1.53772  eV     1   --> A              
     e( 11 - 11) =     -1.27048  eV     1   --> A              
     e( 12 - 12) =     -1.11608  eV     1   --> A              

 **************************************************************************

 **************************************************************************

                    xk=(   0.16665,   0.57732,   0.00000  )

     Band symmetry, C_1 (1)     point group:

     e(  1 -  1) =    -13.12890  eV     1   --> A              
     e(  2 -  2) =    -12.13237  eV     1   --> A              
     e(  3 -  3) =     -9.33449  eV     1   --> A              
     e(  4 -  4) =     -7.28113  eV     1   --> A              
     e(  5 -  5) =     -6.10694  eV     1   --> A              
     e(  6 -  6) =     -4.98645  eV     1   --> A              
     e(  7 -  7) =     -4.34775  eV     1   --> A              
     e(  8 -  8) =     -4.23384  eV     1   --> A              
     e(  9 -  9) =     -2.70151  eV     1   --> A              
     e( 10 - 10) =     -1.49710  eV     1   --> A              
     e( 11 - 11) =     -1.25733  eV     1   --> A              
     e( 12 - 12) =     -1.10271  eV     1   --> A              

 **************************************************************************

 **************************************************************************

                    xk=(   0.17776,   0.57732,   0.00000  )

     Band symmetry, C_1 (1)     point group:

     e(  1 -  1) =    -13.12232  eV     1   --> A              
     e(  2 -  2) =    -12.14198  eV     1   --> A              
     e(  3 -  3) =     -9.34254  eV     1   --> A              
     e(  4 -  4) =     -7.24438  eV     1   --> A              
     e(  5 -  5) =     -6.13697  eV     1   --> A              
     e(  6 -  6) =     -4.96884  eV     1   --> A              
     e(  7 -  7) =     -4.35311  eV     1   --> A              
     e(  8 -  8) =     -4.24059  eV     1   --> A              
     e(  9 -  9) =     -2.72584  eV     1   --> A              
     e( 10 - 10) =     -1.45665  eV     1   --> A              
     e( 11 - 11) =     -1.24281  eV     1   --> A              
     e( 12 - 12) =     -1.08910  eV     1   --> A              

 **************************************************************************

 **************************************************************************

                    xk=(   0.18887,   0.57732,   0.00000  )

     Band symmetry, C_1 (1)     point group:

     e(  1 -  1) =    -13.11559  eV     1   --> A              
     e(  2 -  2) =    -12.15176  eV     1   --> A              
     e(  3 -  3) =     -9.35030  eV     1   --> A              
     e(  4 -  4) =     -7.20656  eV     1   --> A              
     e(  5 -  5) =     -6.16813  eV     1   --> A              
     e(  6 -  6) =     -4.95018  eV     1   --> A              
     e(  7 -  7) =     -4.36090  eV     1   --> A              
     e(  8 -  8) =     -4.24603  eV     1   --> A              
     e(  9 -  9) =     -2.74893  eV     1   --> A              
     e( 10 - 10) =     -1.41669  eV     1   --> A              
     e( 11 - 11) =     -1.22683  eV     1   --> A              
     e( 12 - 12) =     -1.07521  eV     1   --> A              

 **************************************************************************

 **************************************************************************

                    xk=(   0.19998,   0.57732,   0.00000  )

     Band symmetry, C_1 (1)     point group:

     e(  1 -  1) =    -13.10877  eV     1   --> A              
     e(  2 -  2) =    -12.16162  eV     1   --> A              
     e(  3 -  3) =     -9.35769  eV     1   --> A              
     e(  4 -  4) =     -7.16785  eV     1   --> A              
     e(  5 -  5) =     -6.20034  eV     1   --> A              
     e(  6 -  6) =     -4.93053  eV     1   --> A              
     e(  7 -  7) =     -4.37113  eV     1   --> A              
     e(  8 -  8) =     -4.25015  eV     1   --> A              
     e(  9 -  9) =     -2.77069  eV     1   --> A              
     e( 10 - 10) =     -1.37766  eV     1   --> A              
     e( 11 - 11) =     -1.20920  eV     1   --> A              
     e( 12 - 12) =     -1.06096  eV     1   --> A              

 **************************************************************************

 **************************************************************************

                    xk=(   0.21109,   0.57731,   0.00000  )

     Band symmetry, C_1 (1)     point group:

     e(  1 -  1) =    -13.10194  eV     1   --> A              
     e(  2 -  2) =    -12.17145  eV     1   --> A              
     e(  3 -  3) =     -9.36468  eV     1   --> A              
     e(  4 -  4) =     -7.12843  eV     1   --> A              
     e(  5 -  5) =     -6.23347  eV     1   --> A              
     e(  6 -  6) =     -4.90996  eV     1   --> A              
     e(  7 -  7) =     -4.38359  eV     1   --> A              
     e(  8 -  8) =     -4.25313  eV     1   --> A              
     e(  9 -  9) =     -2.79105  eV     1   --> A              
     e( 10 - 10) =     -1.34019  eV     1   --> A              
     e( 11 - 11) =     -1.18953  eV     1   --> A              
     e( 12 - 12) =     -1.04623  eV     1   --> A              

 **************************************************************************

 **************************************************************************

                    xk=(   0.22220,   0.57731,   0.00000  )

     Band symmetry, C_1 (1)     point group:

     e(  1 -  1) =    -13.09517  eV     1   --> A              
     e(  2 -  2) =    -12.18114  eV     1   --> A              
     e(  3 -  3) =     -9.37119  eV     1   --> A              
     e(  4 -  4) =     -7.08845  eV     1   --> A              
     e(  5 -  5) =     -6.26742  eV     1   --> A              
     e(  6 -  6) =     -4.88857  eV     1   --> A              
     e(  7 -  7) =     -4.39797  eV     1   --> A              
     e(  8 -  8) =     -4.25523  eV     1   --> A              
     e(  9 -  9) =     -2.80992  eV     1   --> A              
     e( 10 - 10) =     -1.30514  eV     1   --> A              
     e( 11 - 11) =     -1.16730  eV     1   --> A              
     e( 12 - 12) =     -1.03088  eV     1   --> A              

 **************************************************************************

 **************************************************************************

                    xk=(   0.23331,   0.57731,   0.00000  )

     Band symmetry, C_1 (1)     point group:

     e(  1 -  1) =    -13.08855  eV     1   --> A              
     e(  2 -  2) =    -12.19058  eV     1   --> A              
     e(  3 -  3) =     -9.37718  eV     1   --> A              
     e(  4 -  4) =     -7.04810  eV     1   --> A              
     e(  5 -  5) =     -6.30206  eV     1   --> A              
     e(  6 -  6) =     -4.86646  eV     1   --> A              
     e(  7 -  7) =     -4.41391  eV     1   --> A              
     e(  8 -  8) =     -4.25672  eV     1   --> A              
     e(  9 -  9) =     -2.82724  eV     1   --> A              
     e( 10 - 10) =     -1.27352  eV     1   --> A              
     e( 11 - 11) =     -1.14188  eV     1   --> A              
     e( 12 - 12) =     -1.01473  eV     1   --> A              

 **************************************************************************

 **************************************************************************

                    xk=(   0.24442,   0.57731,   0.00000  )

     Band symmetry, C_1 (1)     point group:

     e(  1 -  1) =    -13.08217  eV     1   --> A              
     e(  2 -  2) =    -12.19964  eV     1   --> A              
     e(  3 -  3) =     -9.38262  eV     1   --> A              
     e(  4 -  4) =     -7.00756  eV     1   --> A              
     e(  5 -  5) =     -6.33725  eV     1   --> A              
     e(  6 -  6) =     -4.84379  eV     1   --> A              
     e(  7 -  7) =     -4.43106  eV     1   --> A              
     e(  8 -  8) =     -4.25782  eV     1   --> A              
     e(  9 -  9) =     -2.84294  eV     1   --> A              
     e( 10 - 10) =     -1.24612  eV     1   --> A              
     e( 11 - 11) =     -1.11280  eV     1   --> A              
     e( 12 - 12) =     -0.99751  eV     1   --> A              

 **************************************************************************

 **************************************************************************

                    xk=(   0.25553,   0.57731,   0.00000  )

     Band symmetry, C_1 (1)     point group:

     e(  1 -  1) =    -13.07613  eV     1   --> A              
     e(  2 -  2) =    -12.20817  eV     1   --> A              
     e(  3 -  3) =     -9.38747  eV     1   --> A              
     e(  4 -  4) =     -6.96706  eV     1   --> A              
     e(  5 -  5) =     -6.37284  eV     1   --> A              
     e(  6 -  6) =     -4.82076  eV     1   --> A              
     e(  7 -  7) =     -4.44910  eV     1   --> A              
     e(  8 -  8) =     -4.25871  eV     1   --> A              
     e(  9 -  9) =     -2.85698  eV     1   --> A              
     e( 10 - 10) =     -1.22326  eV     1   --> A              
     e( 11 - 11) =     -1.08025  eV     1   --> A              
     e( 12 - 12) =     -0.97899  eV     1   --> A              

 **************************************************************************

 **************************************************************************

                    xk=(   0.26664,   0.57730,   0.00000  )

     Band symmetry, C_1 (1)     point group:

     e(  1 -  1) =    -13.07053  eV     1   --> A              
     e(  2 -  2) =    -12.21604  eV     1   --> A              
     e(  3 -  3) =     -9.39171  eV     1   --> A              
     e(  4 -  4) =     -6.92687  eV     1   --> A              
     e(  5 -  5) =     -6.40861  eV     1   --> A              
     e(  6 -  6) =     -4.79763  eV     1   --> A              
     e(  7 -  7) =     -4.46771  eV     1   --> A              
     e(  8 -  8) =     -4.25947  eV     1   --> A              
     e(  9 -  9) =     -2.86929  eV     1   --> A              
     e( 10 - 10) =     -1.20465  eV     1   --> A              
     e( 11 - 11) =     -1.04504  eV     1   --> A              
     e( 12 - 12) =     -0.95883  eV     1   --> A              

 **************************************************************************

 **************************************************************************

                    xk=(   0.27775,   0.57730,   0.00000  )

     Band symmetry, C_1 (1)     point group:

     e(  1 -  1) =    -13.06549  eV     1   --> A              
     e(  2 -  2) =    -12.22310  eV     1   --> A              
     e(  3 -  3) =     -9.39532  eV     1   --> A              
     e(  4 -  4) =     -6.88736  eV     1   --> A              
     e(  5 -  5) =     -6.44425  eV     1   --> A              
     e(  6 -  6) =     -4.77478  eV     1   --> A              
     e(  7 -  7) =     -4.48648  eV     1   --> A              
     e(  8 -  8) =     -4.26018  eV     1   --> A              
     e(  9 -  9) =     -2.87984  eV     1   --> A              
     e( 10 - 10) =     -1.18974  eV     1   --> A              
     e( 11 - 11) =     -1.00846  eV     1   --> A              
     e( 12 - 12) =     -0.93663  eV     1   --> A              

 **************************************************************************

 **************************************************************************

                    xk=(   0.28886,   0.57730,   0.00000  )

     Band symmetry, C_1 (1)     point group:

     e(  1 -  1) =    -13.06112  eV     1   --> A              
     e(  2 -  2) =    -12.22919  eV     1   --> A              
     e(  3 -  3) =     -9.39829  eV     1   --> A              
     e(  4 -  4) =     -6.84908  eV     1   --> A              
     e(  5 -  5) =     -6.47923  eV     1   --> A              
     e(  6 -  6) =     -4.75277  eV     1   --> A              
     e(  7 -  7) =     -4.50489  eV     1   --> A              
     e(  8 -  8) =     -4.26084  eV     1   --> A              
     e(  9 -  9) =     -2.88857  eV     1   --> A              
     e( 10 - 10) =     -1.17802  eV     1   --> A              
     e( 11 - 11) =     -0.97196  eV     1   --> A              
     e( 12 - 12) =     -0.91181  eV     1   --> A              

 **************************************************************************

 **************************************************************************

                    xk=(   0.29997,   0.57730,   0.00000  )

     Band symmetry, C_1 (1)     point group:

     e(  1 -  1) =    -13.05754  eV     1   --> A              
     e(  2 -  2) =    -12.23417  eV     1   --> A              
     e(  3 -  3) =     -9.40060  eV     1   --> A              
     e(  4 -  4) =     -6.81303  eV     1   --> A              
     e(  5 -  5) =     -6.51263  eV     1   --> A              
     e(  6 -  6) =     -4.73247  eV     1   --> A              
     e(  7 -  7) =     -4.52215  eV     1   --> A              
     e(  8 -  8) =     -4.26144  eV     1   --> A              
     e(  9 -  9) =     -2.89544  eV     1   --> A              
     e( 10 - 10) =     -1.16912  eV     1   --> A              
     e( 11 - 11) =     -0.93716  eV     1   --> A              
     e( 12 - 12) =     -0.88396  eV     1   --> A              

 **************************************************************************

 **************************************************************************

                    xk=(   0.31108,   0.57730,   0.00000  )

     Band symmetry, C_1 (1)     point group:

     e(  1 -  1) =    -13.05487  eV     1   --> A              
     e(  2 -  2) =    -12.23788  eV     1   --> A              
     e(  3 -  3) =     -9.40227  eV     1   --> A              
     e(  4 -  4) =     -6.78117  eV     1   --> A              
     e(  5 -  5) =     -6.54255  eV     1   --> A              
     e(  6 -  6) =     -4.71528  eV     1   --> A              
     e(  7 -  7) =     -4.53697  eV     1   --> A              
     e(  8 -  8) =     -4.26193  eV     1   --> A              
     e(  9 -  9) =     -2.90041  eV     1   --> A              
     e( 10 - 10) =     -1.16279  eV     1   --> A              
     e( 11 - 11) =     -0.90526  eV     1   --> A              
     e( 12 - 12) =     -0.85411  eV     1   --> A              

 **************************************************************************

 **************************************************************************

                    xk=(   0.32219,   0.57729,   0.00000  )

     Band symmetry, C_1 (1)     point group:

     e(  1 -  1) =    -13.05321  eV     1   --> A              
     e(  2 -  2) =    -12.24018  eV     1   --> A              
     e(  3 -  3) =     -9.40328  eV     1   --> A              
     e(  4 -  4) =     -6.75743  eV     1   --> A              
     e(  5 -  5) =     -6.56508  eV     1   --> A              
     e(  6 -  6) =     -4.70332  eV     1   --> A              
     e(  7 -  7) =     -4.54738  eV     1   --> A              
     e(  8 -  8) =     -4.26227  eV     1   --> A              
     e(  9 -  9) =     -2.90344  eV     1   --> A              
     e( 10 - 10) =     -1.15894  eV     1   --> A              
     e( 11 - 11) =     -0.87676  eV     1   --> A              
     e( 12 - 12) =     -0.82835  eV     1   --> A              

 **************************************************************************

 **************************************************************************

                    xk=(   0.33330,   0.57729,   0.00000  )

     Band symmetry, C_1 (1)     point group:

     e(  1 -  1) =    -13.05266  eV     1   --> A              
     e(  2 -  2) =    -12.24093  eV     1   --> A              
     e(  3 -  3) =     -9.40364  eV     1   --> A              
     e(  4 -  4) =     -6.74833  eV     1   --> A              
     e(  5 -  5) =     -6.57377  eV     1   --> A              
     e(  6 -  6) =     -4.69901  eV     1   --> A              
     e(  7 -  7) =     -4.55112  eV     1   --> A              
     e(  8 -  8) =     -4.26238  eV     1   --> A              
     e(  9 -  9) =     -2.90447  eV     1   --> A              
     e( 10 - 10) =     -1.15760  eV     1   --> A              
     e( 11 - 11) =     -0.85789  eV     1   --> A              
     e( 12 - 12) =     -0.82282  eV     1   --> A              

 **************************************************************************

 **************************************************************************

                    xk=(   0.32219,   0.55805,   0.00000  )

     Band symmetry, C_1 (1)     point group:

     e(  1 -  1) =    -13.05501  eV     1   --> A              
     e(  2 -  2) =    -12.23769  eV     1   --> A              
     e(  3 -  3) =     -9.40222  eV     1   --> A              
     e(  4 -  4) =     -6.78077  eV     1   --> A              
     e(  5 -  5) =     -6.54306  eV     1   --> A              
     e(  6 -  6) =     -4.71500  eV     1   --> A              
     e(  7 -  7) =     -4.53778  eV     1   --> A              
     e(  8 -  8) =     -4.26182  eV     1   --> A              
     e(  9 -  9) =     -2.90024  eV     1   --> A              
     e( 10 - 10) =     -1.16420  eV     1   --> A              
     e( 11 - 11) =     -0.94656  eV     1   --> A              
     e( 12 - 12) =     -0.78056  eV     1   --> A              

 **************************************************************************

 **************************************************************************

                    xk=(   0.31108,   0.53881,   0.00000  )

     Band symmetry, C_1 (1)     point group:

     e(  1 -  1) =    -13.06258  eV     1   --> A              
     e(  2 -  2) =    -12.22708  eV     1   --> A              
     e(  3 -  3) =     -9.39833  eV     1   --> A              
     e(  4 -  4) =     -6.84837  eV     1   --> A              
     e(  5 -  5) =     -6.48085  eV     1   --> A              
     e(  6 -  6) =     -4.75229  eV     1   --> A              
     e(  7 -  7) =     -4.50943  eV     1   --> A              
     e(  8 -  8) =     -4.25973  eV     1   --> A              
     e(  9 -  9) =     -2.88741  eV     1   --> A              
     e( 10 - 10) =     -1.19310  eV     1   --> A              
     e( 11 - 11) =     -1.05129  eV     1   --> A              
     e( 12 - 12) =     -0.72527  eV     1   --> A              

 **************************************************************************

 **************************************************************************

                    xk=(   0.29997,   0.51956,   0.00000  )

     Band symmetry, C_1 (1)     point group:

     e(  1 -  1) =    -13.07546  eV     1   --> A              
     e(  2 -  2) =    -12.20874  eV     1   --> A              
     e(  3 -  3) =     -9.39210  eV     1   --> A              
     e(  4 -  4) =     -6.92626  eV     1   --> A              
     e(  5 -  5) =     -6.41228  eV     1   --> A              
     e(  6 -  6) =     -4.79811  eV     1   --> A              
     e(  7 -  7) =     -4.48017  eV     1   --> A              
     e(  8 -  8) =     -4.25623  eV     1   --> A              
     e(  9 -  9) =     -2.86555  eV     1   --> A              
     e( 10 - 10) =     -1.26481  eV     1   --> A              
     e( 11 - 11) =     -1.11202  eV     1   --> A              
     e( 12 - 12) =     -0.66891  eV     1   --> A              

 **************************************************************************

 **************************************************************************

                    xk=(   0.28886,   0.50032,   0.00000  )

     Band symmetry, C_1 (1)     point group:

     e(  1 -  1) =    -13.09340  eV     1   --> A              
     e(  2 -  2) =    -12.18271  eV     1   --> A              
     e(  3 -  3) =     -9.38369  eV     1   --> A              
     e(  4 -  4) =     -7.00813  eV     1   --> A              
     e(  5 -  5) =     -6.34395  eV     1   --> A              
     e(  6 -  6) =     -4.84739  eV     1   --> A              
     e(  7 -  7) =     -4.45552  eV     1   --> A              
     e(  8 -  8) =     -4.25246  eV     1   --> A              
     e(  9 -  9) =     -2.83442  eV     1   --> A              
     e( 10 - 10) =     -1.36013  eV     1   --> A              
     e( 11 - 11) =     -1.14153  eV     1   --> A              
     e( 12 - 12) =     -0.61291  eV     1   --> A              

 **************************************************************************

 **************************************************************************

                    xk=(   0.27775,   0.48108,   0.00000  )

     Band symmetry, C_1 (1)     point group:

     e(  1 -  1) =    -13.11585  eV     1   --> A              
     e(  2 -  2) =    -12.14930  eV     1   --> A              
     e(  3 -  3) =     -9.37327  eV     1   --> A              
     e(  4 -  4) =     -7.09207  eV     1   --> A              
     e(  5 -  5) =     -6.27798  eV     1   --> A              
     e(  6 -  6) =     -4.89813  eV     1   --> A              
     e(  7 -  7) =     -4.43690  eV     1   --> A              
     e(  8 -  8) =     -4.25039  eV     1   --> A              
     e(  9 -  9) =     -2.79417  eV     1   --> A              
     e( 10 - 10) =     -1.45135  eV     1   --> A              
     e( 11 - 11) =     -1.16378  eV     1   --> A              
     e( 12 - 12) =     -0.55851  eV     1   --> A              

 **************************************************************************

 **************************************************************************

                    xk=(   0.26664,   0.46183,   0.00000  )

     Band symmetry, C_1 (1)     point group:

     e(  1 -  1) =    -13.14211  eV     1   --> A              
     e(  2 -  2) =    -12.10903  eV     1   --> A              
     e(  3 -  3) =     -9.36103  eV     1   --> A              
     e(  4 -  4) =     -7.17735  eV     1   --> A              
     e(  5 -  5) =     -6.21528  eV     1   --> A              
     e(  6 -  6) =     -4.94930  eV     1   --> A              
     e(  7 -  7) =     -4.42443  eV     1   --> A              
     e(  8 -  8) =     -4.25195  eV     1   --> A              
     e(  9 -  9) =     -2.74563  eV     1   --> A              
     e( 10 - 10) =     -1.52896  eV     1   --> A              
     e( 11 - 11) =     -1.18514  eV     1   --> A              
     e( 12 - 12) =     -0.50704  eV     1   --> A              

 **************************************************************************

 **************************************************************************

                    xk=(   0.25553,   0.44259,   0.00000  )

     Band symmetry, C_1 (1)     point group:

     e(  1 -  1) =    -13.17142  eV     1   --> A              
     e(  2 -  2) =    -12.06250  eV     1   --> A              
     e(  3 -  3) =     -9.34719  eV     1   --> A              
     e(  4 -  4) =     -7.26361  eV     1   --> A              
     e(  5 -  5) =     -6.15638  eV     1   --> A              
     e(  6 -  6) =     -5.00029  eV     1   --> A              
     e(  7 -  7) =     -4.41890  eV     1   --> A              
     e(  8 -  8) =     -4.25728  eV     1   --> A              
     e(  9 -  9) =     -2.69059  eV     1   --> A              
     e( 10 - 10) =     -1.58917  eV     1   --> A              
     e( 11 - 11) =     -1.20647  eV     1   --> A              
     e( 12 - 12) =     -0.46008  eV     1   --> A              

 **************************************************************************

 **************************************************************************

                    xk=(   0.24442,   0.42335,   0.00000  )

     Band symmetry, C_1 (1)     point group:

     e(  1 -  1) =    -13.20302  eV     1   --> A              
     e(  2 -  2) =    -12.01033  eV     1   --> A              
     e(  3 -  3) =     -9.33196  eV     1   --> A              
     e(  4 -  4) =     -7.35066  eV     1   --> A              
     e(  5 -  5) =     -6.10153  eV     1   --> A              
     e(  6 -  6) =     -5.05063  eV     1   --> A              
     e(  7 -  7) =     -4.42335  eV     1   --> A              
     e(  8 -  8) =     -4.26322  eV     1   --> A              
     e(  9 -  9) =     -2.63181  eV     1   --> A              
     e( 10 - 10) =     -1.63016  eV     1   --> A              
     e( 11 - 11) =     -1.22686  eV     1   --> A              
     e( 12 - 12) =     -0.41913  eV     1   --> A              

 **************************************************************************

 **************************************************************************

                    xk=(   0.23331,   0.40410,   0.00000  )

     Band symmetry, C_1 (1)     point group:

     e(  1 -  1) =    -13.23622  eV     1   --> A              
     e(  2 -  2) =    -11.95309  eV     1   --> A              
     e(  3 -  3) =     -9.31554  eV     1   --> A              
     e(  4 -  4) =     -7.43840  eV     1   --> A              
     e(  5 -  5) =     -6.05091  eV     1   --> A              
     e(  6 -  6) =     -5.09997  eV     1   --> A              
     e(  7 -  7) =     -4.44271  eV     1   --> A              
     e(  8 -  8) =     -4.26387  eV     1   --> A              
     e(  9 -  9) =     -2.57289  eV     1   --> A              
     e( 10 - 10) =     -1.65174  eV     1   --> A              
     e( 11 - 11) =     -1.24421  eV     1   --> A              
     e( 12 - 12) =     -0.38579  eV     1   --> A              

 **************************************************************************

 **************************************************************************

                    xk=(   0.22220,   0.38486,   0.00000  )

     Band symmetry, C_1 (1)     point group:

     e(  1 -  1) =    -13.27040  eV     1   --> A              
     e(  2 -  2) =    -11.89131  eV     1   --> A              
     e(  3 -  3) =     -9.29816  eV     1   --> A              
     e(  4 -  4) =     -7.52680  eV     1   --> A              
     e(  5 -  5) =     -6.00457  eV     1   --> A              
     e(  6 -  6) =     -5.14797  eV     1   --> A              
     e(  7 -  7) =     -4.47939  eV     1   --> A              
     e(  8 -  8) =     -4.25512  eV     1   --> A              
     e(  9 -  9) =     -2.51747  eV     1   --> A              
     e( 10 - 10) =     -1.65625  eV     1   --> A              
     e( 11 - 11) =     -1.25478  eV     1   --> A              
     e( 12 - 12) =     -0.36105  eV     1   --> A              

 **************************************************************************

 **************************************************************************

                    xk=(   0.21109,   0.36562,   0.00000  )

     Band symmetry, C_1 (1)     point group:

     e(  1 -  1) =    -13.30503  eV     1   --> A              
     e(  2 -  2) =    -11.82548  eV     1   --> A              
     e(  3 -  3) =     -9.28004  eV     1   --> A              
     e(  4 -  4) =     -7.61579  eV     1   --> A              
     e(  5 -  5) =     -5.96250  eV     1   --> A              
     e(  6 -  6) =     -5.19436  eV     1   --> A              
     e(  7 -  7) =     -4.53123  eV     1   --> A              
     e(  8 -  8) =     -4.23708  eV     1   --> A              
     e(  9 -  9) =     -2.46839  eV     1   --> A              
     e( 10 - 10) =     -1.64994  eV     1   --> A              
     e( 11 - 11) =     -1.25279  eV     1   --> A              
     e( 12 - 12) =     -0.34497  eV     1   --> A              

 **************************************************************************

 **************************************************************************

                    xk=(   0.19998,   0.34638,   0.00000  )

     Band symmetry, C_1 (1)     point group:

     e(  1 -  1) =    -13.33966  eV     1   --> A              
     e(  2 -  2) =    -11.75604  eV     1   --> A              
     e(  3 -  3) =     -9.26138  eV     1   --> A              
     e(  4 -  4) =     -7.70538  eV     1   --> A              
     e(  5 -  5) =     -5.92464  eV     1   --> A              
     e(  6 -  6) =     -5.23886  eV     1   --> A              
     e(  7 -  7) =     -4.59433  eV     1   --> A              
     e(  8 -  8) =     -4.21147  eV     1   --> A              
     e(  9 -  9) =     -2.42686  eV     1   --> A              
     e( 10 - 10) =     -1.64272  eV     1   --> A              
     e( 11 - 11) =     -1.23137  eV     1   --> A              
     e( 12 - 12) =     -0.33618  eV     1   --> A              

 **************************************************************************

 **************************************************************************

                    xk=(   0.18887,   0.32713,   0.00000  )

     Band symmetry, C_1 (1)     point group:

     e(  1 -  1) =    -13.37388  eV     1   --> A              
     e(  2 -  2) =    -11.68338  eV     1   --> A              
     e(  3 -  3) =     -9.24241  eV     1   --> A              
     e(  4 -  4) =     -7.79554  eV     1   --> A              
     e(  5 -  5) =     -5.89088  eV     1   --> A              
     e(  6 -  6) =     -5.28121  eV     1   --> A              
     e(  7 -  7) =     -4.66512  eV     1   --> A              
     e(  8 -  8) =     -4.17972  eV     1   --> A              
     e(  9 -  9) =     -2.39250  eV     1   --> A              
     e( 10 - 10) =     -1.64404  eV     1   --> A              
     e( 11 - 11) =     -1.18706  eV     1   --> A              
     e( 12 - 12) =     -0.33101  eV     1   --> A              

 **************************************************************************

 **************************************************************************

                    xk=(   0.17776,   0.30789,   0.00000  )

     Band symmetry, C_1 (1)     point group:

     e(  1 -  1) =    -13.40738  eV     1   --> A              
     e(  2 -  2) =    -11.60789  eV     1   --> A              
     e(  3 -  3) =     -9.22334  eV     1   --> A              
     e(  4 -  4) =     -7.88622  eV     1   --> A              
     e(  5 -  5) =     -5.86111  eV     1   --> A              
     e(  6 -  6) =     -5.32113  eV     1   --> A              
     e(  7 -  7) =     -4.74074  eV     1   --> A              
     e(  8 -  8) =     -4.14283  eV     1   --> A              
     e(  9 -  9) =     -2.36400  eV     1   --> A              
     e( 10 - 10) =     -1.65757  eV     1   --> A              
     e( 11 - 11) =     -1.12499  eV     1   --> A              
     e( 12 - 12) =     -0.32303  eV     1   --> A              

 **************************************************************************

 **************************************************************************

                    xk=(   0.16665,   0.28865,   0.00000  )

     Band symmetry, C_1 (1)     point group:

     e(  1 -  1) =    -13.43986  eV     1   --> A              
     e(  2 -  2) =    -11.52994  eV     1   --> A              
     e(  3 -  3) =     -9.20436  eV     1   --> A              
     e(  4 -  4) =     -7.97736  eV     1   --> A              
     e(  5 -  5) =     -5.83520  eV     1   --> A              
     e(  6 -  6) =     -5.35834  eV     1   --> A              
     e(  7 -  7) =     -4.81884  eV     1   --> A              
     e(  8 -  8) =     -4.10154  eV     1   --> A              
     e(  9 -  9) =     -2.33983  eV     1   --> A              
     e( 10 - 10) =     -1.68180  eV     1   --> A              
     e( 11 - 11) =     -1.05815  eV     1   --> A              
     e( 12 - 12) =     -0.30252  eV     1   --> A              

 **************************************************************************

 **************************************************************************

                    xk=(   0.15554,   0.26940,   0.00000  )

     Band symmetry, C_1 (1)     point group:

     e(  1 -  1) =    -13.47109  eV     1   --> A              
     e(  2 -  2) =    -11.44993  eV     1   --> A              
     e(  3 -  3) =     -9.18566  eV     1   --> A              
     e(  4 -  4) =     -8.06884  eV     1   --> A              
     e(  5 -  5) =     -5.81311  eV     1   --> A              
     e(  6 -  6) =     -5.39252  eV     1   --> A              
     e(  7 -  7) =     -4.89749  eV     1   --> A              
     e(  8 -  8) =     -4.05655  eV     1   --> A              
     e(  9 -  9) =     -2.31875  eV     1   --> A              
     e( 10 - 10) =     -1.71376  eV     1   --> A              
     e( 11 - 11) =     -1.00247  eV     1   --> A              
     e( 12 - 12) =     -0.25780  eV     1   --> A              

 **************************************************************************

 **************************************************************************

                    xk=(   0.14443,   0.25016,   0.00000  )

     Band symmetry, C_1 (1)     point group:

     e(  1 -  1) =    -13.50086  eV     1   --> A              
     e(  2 -  2) =    -11.36827  eV     1   --> A              
     e(  3 -  3) =     -9.16744  eV     1   --> A              
     e(  4 -  4) =     -8.16052  eV     1   --> A              
     e(  5 -  5) =     -5.79480  eV     1   --> A              
     e(  6 -  6) =     -5.42331  eV     1   --> A              
     e(  7 -  7) =     -4.97509  eV     1   --> A              
     e(  8 -  8) =     -4.00851  eV     1   --> A              
     e(  9 -  9) =     -2.29987  eV     1   --> A              
     e( 10 - 10) =     -1.75093  eV     1   --> A              
     e( 11 - 11) =     -0.96990  eV     1   --> A              
     e( 12 - 12) =     -0.18014  eV     1   --> A              

 **************************************************************************

 **************************************************************************

                    xk=(   0.13332,   0.23092,   0.00000  )

     Band symmetry, C_1 (1)     point group:

     e(  1 -  1) =    -13.52900  eV     1   --> A              
     e(  2 -  2) =    -11.28540  eV     1   --> A              
     e(  3 -  3) =     -9.14986  eV     1   --> A              
     e(  4 -  4) =     -8.25213  eV     1   --> A              
     e(  5 -  5) =     -5.78036  eV     1   --> A              
     e(  6 -  6) =     -5.45032  eV     1   --> A              
     e(  7 -  7) =     -5.05030  eV     1   --> A              
     e(  8 -  8) =     -3.95809  eV     1   --> A              
     e(  9 -  9) =     -2.28266  eV     1   --> A              
     e( 10 - 10) =     -1.79154  eV     1   --> A              
     e( 11 - 11) =     -0.96295  eV     1   --> A              
     e( 12 - 12) =     -0.06935  eV     1   --> A              

 **************************************************************************

 **************************************************************************

                    xk=(   0.12221,   0.21167,   0.00000  )

     Band symmetry, C_1 (1)     point group:

     e(  1 -  1) =    -13.55534  eV     1   --> A              
     e(  2 -  2) =    -11.20184  eV     1   --> A              
     e(  3 -  3) =     -9.13308  eV     1   --> A              
     e(  4 -  4) =     -8.34335  eV     1   --> A              
     e(  5 -  5) =     -5.76986  eV     1   --> A              
     e(  6 -  6) =     -5.47315  eV     1   --> A              
     e(  7 -  7) =     -5.12200  eV     1   --> A              
     e(  8 -  8) =     -3.90602  eV     1   --> A              
     e(  9 -  9) =     -2.26681  eV     1   --> A              
     e( 10 - 10) =     -1.83432  eV     1   --> A              
     e( 11 - 11) =     -0.97623  eV     1   --> A              
     e( 12 - 12) =      0.06737  eV     1   --> A              

 **************************************************************************

 **************************************************************************

                    xk=(   0.11110,   0.19243,   0.00000  )

     Band symmetry, C_1 (1)     point group:

     e(  1 -  1) =    -13.57977  eV     1   --> A              
     e(  2 -  2) =    -11.11819  eV     1   --> A              
     e(  3 -  3) =     -9.11725  eV     1   --> A              
     e(  4 -  4) =     -8.43373  eV     1   --> A              
     e(  5 -  5) =     -5.76339  eV     1   --> A              
     e(  6 -  6) =     -5.49152  eV     1   --> A              
     e(  7 -  7) =     -5.18929  eV     1   --> A              
     e(  8 -  8) =     -3.85308  eV     1   --> A              
     e(  9 -  9) =     -2.25220  eV     1   --> A              
     e( 10 - 10) =     -1.87830  eV     1   --> A              
     e( 11 - 11) =     -1.00245  eV     1   --> A              
     e( 12 - 12) =      0.22056  eV     1   --> A              

 **************************************************************************

 **************************************************************************

                    xk=(   0.09999,   0.17319,   0.00000  )

     Band symmetry, C_1 (1)     point group:

     e(  1 -  1) =    -13.60216  eV     1   --> A              
     e(  2 -  2) =    -11.03515  eV     1   --> A              
     e(  3 -  3) =     -9.10253  eV     1   --> A              
     e(  4 -  4) =     -8.52268  eV     1   --> A              
     e(  5 -  5) =     -5.76085  eV     1   --> A              
     e(  6 -  6) =     -5.50533  eV     1   --> A              
     e(  7 -  7) =     -5.25146  eV     1   --> A              
     e(  8 -  8) =     -3.80012  eV     1   --> A              
     e(  9 -  9) =     -2.23881  eV     1   --> A              
     e( 10 - 10) =     -1.92264  eV     1   --> A              
     e( 11 - 11) =     -1.03566  eV     1   --> A              
     e( 12 - 12) =      0.38125  eV     1   --> A              

 **************************************************************************

 **************************************************************************

                    xk=(   0.08888,   0.15394,   0.00000  )

     Band symmetry, C_1 (1)     point group:

     e(  1 -  1) =    -13.62243  eV     1   --> A              
     e(  2 -  2) =    -10.95361  eV     1   --> A              
     e(  3 -  3) =     -9.08903  eV     1   --> A              
     e(  4 -  4) =     -8.60941  eV     1   --> A              
     e(  5 -  5) =     -5.76187  eV     1   --> A              
     e(  6 -  6) =     -5.51481  eV     1   --> A              
     e(  7 -  7) =     -5.30793  eV     1   --> A              
     e(  8 -  8) =     -3.74804  eV     1   --> A              
     e(  9 -  9) =     -2.22665  eV     1   --> A              
     e( 10 - 10) =     -1.96650  eV     1   --> A              
     e( 11 - 11) =     -1.07159  eV     1   --> A              
     e( 12 - 12) =      0.54079  eV     1   --> A              

 **************************************************************************

 **************************************************************************

                    xk=(   0.07777,   0.13470,   0.00000  )

     Band symmetry, C_1 (1)     point group:

     e(  1 -  1) =    -13.64049  eV     1   --> A              
     e(  2 -  2) =    -10.87464  eV     1   --> A              
     e(  3 -  3) =     -9.07686  eV     1   --> A              
     e(  4 -  4) =     -8.69291  eV     1   --> A              
     e(  5 -  5) =     -5.76574  eV     1   --> A              
     e(  6 -  6) =     -5.52054  eV     1   --> A              
     e(  7 -  7) =     -5.35823  eV     1   --> A              
     e(  8 -  8) =     -3.69783  eV     1   --> A              
     e(  9 -  9) =     -2.21576  eV     1   --> A              
     e( 10 - 10) =     -2.00901  eV     1   --> A              
     e( 11 - 11) =     -1.10739  eV     1   --> A              
     e( 12 - 12) =      0.68801  eV     1   --> A              

 **************************************************************************

 **************************************************************************

                    xk=(   0.06666,   0.11546,   0.00000  )

     Band symmetry, C_1 (1)     point group:

     e(  1 -  1) =    -13.65627  eV     1   --> A              
     e(  2 -  2) =    -10.79956  eV     1   --> A              
     e(  3 -  3) =     -9.06612  eV     1   --> A              
     e(  4 -  4) =     -8.77188  eV     1   --> A              
     e(  5 -  5) =     -5.77155  eV     1   --> A              
     e(  6 -  6) =     -5.52334  eV     1   --> A              
     e(  7 -  7) =     -5.40205  eV     1   --> A              
     e(  8 -  8) =     -3.65057  eV     1   --> A              
     e(  9 -  9) =     -2.20619  eV     1   --> A              
     e( 10 - 10) =     -2.04922  eV     1   --> A              
     e( 11 - 11) =     -1.14110  eV     1   --> A              
     e( 12 - 12) =      0.80476  eV     1   --> A              

 **************************************************************************

 **************************************************************************

                    xk=(   0.05555,   0.09622,   0.00000  )

     Band symmetry, C_1 (1)     point group:

     e(  1 -  1) =    -13.66972  eV     1   --> A              
     e(  2 -  2) =    -10.73004  eV     1   --> A              
     e(  3 -  3) =     -9.05689  eV     1   --> A              
     e(  4 -  4) =     -8.84470  eV     1   --> A              
     e(  5 -  5) =     -5.77833  eV     1   --> A              
     e(  6 -  6) =     -5.52413  eV     1   --> A              
     e(  7 -  7) =     -5.43920  eV     1   --> A              
     e(  8 -  8) =     -3.60745  eV     1   --> A              
     e(  9 -  9) =     -2.19801  eV     1   --> A              
     e( 10 - 10) =     -2.08611  eV     1   --> A              
     e( 11 - 11) =     -1.17139  eV     1   --> A              
     e( 12 - 12) =      0.86650  eV     1   --> A              

 **************************************************************************

 **************************************************************************

                    xk=(   0.04444,   0.07697,   0.00000  )

     Band symmetry, C_1 (1)     point group:

     e(  1 -  1) =    -13.68078  eV     1   --> A              
     e(  2 -  2) =    -10.66806  eV     1   --> A              
     e(  3 -  3) =     -9.04924  eV     1   --> A              
     e(  4 -  4) =     -8.90937  eV     1   --> A              
     e(  5 -  5) =     -5.78515  eV     1   --> A              
     e(  6 -  6) =     -5.52369  eV     1   --> A              
     e(  7 -  7) =     -5.46956  eV     1   --> A              
     e(  8 -  8) =     -3.56970  eV     1   --> A              
     e(  9 -  9) =     -2.19125  eV     1   --> A              
     e( 10 - 10) =     -2.11855  eV     1   --> A              
     e( 11 - 11) =     -1.19723  eV     1   --> A              
     e( 12 - 12) =      0.87939  eV     1   --> A              

 **************************************************************************

 **************************************************************************

                    xk=(   0.03333,   0.05773,   0.00000  )

     Band symmetry, C_1 (1)     point group:

     e(  1 -  1) =    -13.68943  eV     1   --> A              
     e(  2 -  2) =    -10.61596  eV     1   --> A              
     e(  3 -  3) =     -9.04324  eV     1   --> A              
     e(  4 -  4) =     -8.96359  eV     1   --> A              
     e(  5 -  5) =     -5.79126  eV     1   --> A              
     e(  6 -  6) =     -5.52271  eV     1   --> A              
     e(  7 -  7) =     -5.49311  eV     1   --> A              
     e(  8 -  8) =     -3.53860  eV     1   --> A              
     e(  9 -  9) =     -2.18596  eV     1   --> A              
     e( 10 - 10) =     -2.14540  eV     1   --> A              
     e( 11 - 11) =     -1.21798  eV     1   --> A              
     e( 12 - 12) =      0.87388  eV     1   --> A              

 **************************************************************************

 **************************************************************************

                    xk=(   0.02222,   0.03849,   0.00000  )

     Band symmetry, C_1 (1)     point group:

     e(  1 -  1) =    -13.69562  eV     1   --> A              
     e(  2 -  2) =    -10.57624  eV     1   --> A              
     e(  3 -  3) =     -9.03892  eV     1   --> A              
     e(  4 -  4) =     -9.00482  eV     1   --> A              
     e(  5 -  5) =     -5.79605  eV     1   --> A              
     e(  6 -  6) =     -5.52167  eV     1   --> A              
     e(  7 -  7) =     -5.50987  eV     1   --> A              
     e(  8 -  8) =     -3.51533  eV     1   --> A              
     e(  9 -  9) =     -2.18216  eV     1   --> A              
     e( 10 - 10) =     -2.16556  eV     1   --> A              
     e( 11 - 11) =     -1.23312  eV     1   --> A              
     e( 12 - 12) =      0.86535  eV     1   --> A              

 **************************************************************************

 **************************************************************************

                    xk=(   0.01111,   0.01924,   0.00000  )

     Band symmetry, C_1 (1)     point group:

     e(  1 -  1) =    -13.69934  eV     1   --> A              
     e(  2 -  2) =    -10.55124  eV     1   --> A              
     e(  3 -  3) =     -9.03632  eV     1   --> A              
     e(  4 -  4) =     -9.03073  eV     1   --> A              
     e(  5 -  5) =     -5.79910  eV     1   --> A              
     e(  6 -  6) =     -5.52092  eV     1   --> A              
     e(  7 -  7) =     -5.51989  eV     1   --> A              
     e(  8 -  8) =     -3.50091  eV     1   --> A              
     e(  9 -  9) =     -2.17986  eV     1   --> A              
     e( 10 - 10) =     -2.17808  eV     1   --> A              
     e( 11 - 11) =     -1.24231  eV     1   --> A              
     e( 12 - 12) =      0.85902  eV     1   --> A              

 **************************************************************************

 **************************************************************************

                    xk=(   0.00000,   0.00000,   0.00000  )

     point group C_s (m)    
     there are  2 classes
     the character table:

       E     s    
A'     1.00  1.00
A''    1.00 -1.00

     the symmetry operations in each class and the name of the first element:

     E        1
                                                                 
     s        2
                                                                 

     Band symmetry, C_s (m)     point group:

     e(  1 -  1) =    -13.70058  eV     1   --> A'             
     e(  2 -  2) =    -10.54269  eV     1   --> A'             
     e(  3 -  3) =     -9.03960  eV     1   --> A''            
     e(  4 -  4) =     -9.03544  eV     1   --> A'             
     e(  5 -  5) =     -5.80015  eV     1   --> A'             
     e(  6 -  6) =     -5.52324  eV     1   --> A'             
     e(  7 -  7) =     -5.52064  eV     1   --> A''            
     e(  8 -  8) =     -3.49602  eV     1   --> A'             
     e(  9 -  9) =     -2.18233  eV     1   --> A''            
     e( 10 - 10) =     -2.17910  eV     1   --> A'             
     e( 11 - 11) =     -1.24541  eV     1   --> A'             
     e( 12 - 12) =      0.85674  eV     1   --> A'             

 **************************************************************************

     BANDS        :     36.66s CPU     35.03s WALL


   This run was terminated on:  21:37:23   8Jan2025            

=------------------------------------------------------------------------------=
   JOB DONE.
=------------------------------------------------------------------------------=
