
     Program PWSCF v.6.4.1 starts on  8Jan2025 at 21:23:54 

     This program is part of the open-source Quantum ESPRESSO suite
     for quantum simulation of materials; please cite
         "P. Giannozzi et al., J. Phys.:Condens. Matter 21 395502 (2009);
         "P. Giannozzi et al., J. Phys.:Condens. Matter 29 465901 (2017);
          URL http://www.quantum-espresso.org", 
     in publications or presentations arising from this work. More details at
     http://www.quantum-espresso.org/quote

     Parallel version (MPI), running on     1 processors

     MPI processes distributed on     1 nodes
     Waiting for input...
     Reading input from standard input

     Current dimensions of program PWSCF are:
     Max number of different atomic species (ntypx) = 10
     Max number of k-points (npk) =  40000
     Max angular momentum in pseudopotentials (lmaxx) =  3

     Atomic positions and unit cell read from directory:
     ./out/aiida.save/


     Subspace diagonalization in iterative solution of the eigenvalue problem:
     a serial algorithm will be used

     Message from routine setup:
     DEPRECATED: symmetry with ibrav=0, use correct ibrav instead

     G-vector sticks info
     --------------------
     sticks:   dense  smooth     PW     G-vecs:    dense   smooth      PW
     Sum        2209    1099    313               272959    96377   14483



     bravais-lattice index     =            0
     lattice parameter (alat)  =      11.5203  a.u.
     unit-cell volume          =    4343.9609 (a.u.)^3
     number of atoms/cell      =            4
     number of atomic types    =            1
     number of electrons       =        16.00
     number of Kohn-Sham states=           12
     kinetic-energy cutoff     =      30.0000  Ry
     charge density cutoff     =     240.0000  Ry
     Exchange-correlation      = PBE ( 1  4  3  4 0 0)

     celldm(1)=  11.520285  celldm(2)=   0.000000  celldm(3)=   0.000000
     celldm(4)=   0.000000  celldm(5)=   0.000000  celldm(6)=   0.000000

     crystal axes: (cart. coord. in units of alat)
               a(1) = (   1.000000   0.000000   0.000000 )  
               a(2) = (  -0.500000   0.866025   0.000000 )  
               a(3) = (   0.000000   0.000000   3.280694 )  

     reciprocal axes: (cart. coord. in units 2 pi/alat)
               b(1) = (  1.000000  0.577350 -0.000000 )  
               b(2) = (  0.000000  1.154701  0.000000 )  
               b(3) = (  0.000000 -0.000000  0.304814 )  


     PseudoPot. # 1 for Si read from file:
     ../../pseudo/Si.pbe.upf
     MD5 check sum: 3f156eda2279325da2083dedf8f436a5
     Pseudo is Norm-conserving + core correction, Zval =  4.0
     Generated using ONCVPSP code by D. R. Hamann
     Using radial grid of 1510 points,  6 beta functions with: 
                l(1) =   0
                l(2) =   0
                l(3) =   1
                l(4) =   1
                l(5) =   2
                l(6) =   2

     atomic species   valence    mass     pseudopotential
        Si             4.00    28.08550     Si( 1.00)

      2 Sym. Ops. (no inversion) found


                                    s                        frac. trans.

      isym =  1     identity                                     

 cryst.   s( 1) = (     1          0          0      )
                  (     0          1          0      )
                  (     0          0          1      )

 cart.    s( 1) = (  1.0000000  0.0000000  0.0000000 )
                  (  0.0000000  1.0000000  0.0000000 )
                  (  0.0000000  0.0000000  1.0000000 )


      isym =  2     inv. 180 deg rotation - cryst. axis [1,1,0]  

 cryst.   s( 2) = (     0         -1          0      )
                  (    -1          0          0      )
                  (     0          0          1      )

 cart.    s( 2) = (  0.5000000 -0.8660254  0.0000000 )
                  ( -0.8660254 -0.5000000  0.0000000 )
                  (  0.0000000  0.0000000  1.0000000 )


   Cartesian axes

     site n.     atom                  positions (alat units)
         1           Si  tau(   1) = (   0.2500000   0.4330127   1.6403468  )
         2           Si  tau(   2) = (   0.4420000   0.1004589   1.6403468  )
         3           Si  tau(   3) = (   0.6340000   0.4330127   1.6403468  )
         4           Si  tau(   4) = (  -0.0582500   0.6109809   1.8109428  )

   Crystallographic axes

     site n.     atom                  positions (cryst. coord.)
         1           Si  tau(   1) = (  0.5000000  0.5000000  0.5000000  )
         2           Si  tau(   2) = (  0.5000000  0.1160000  0.5000000  )
         3           Si  tau(   3) = (  0.8840000  0.5000000  0.5000000  )
         4           Si  tau(   4) = (  0.2945000  0.7055000  0.5520000  )

     number of k points=    36  Marzari-Vanderbilt smearing, width (Ry)=  0.0200
                       cart. coord. in units 2pi/alat
        k(    1) = (   0.0000000   0.0000000   0.0000000), wk =   0.0165289
        k(    2) = (   0.0000000   0.1049728   0.0000000), wk =   0.0661157
        k(    3) = (   0.0000000   0.2099456   0.0000000), wk =   0.0661157
        k(    4) = (   0.0000000   0.3149183   0.0000000), wk =   0.0661157
        k(    5) = (   0.0000000   0.4198911   0.0000000), wk =   0.0661157
        k(    6) = (   0.0000000   0.5248639   0.0000000), wk =   0.0661157
        k(    7) = (   0.0909091   0.1574592   0.0000000), wk =   0.0330579
        k(    8) = (   0.0909091   0.2624319   0.0000000), wk =   0.0661157
        k(    9) = (   0.0909091   0.3674047   0.0000000), wk =   0.0661157
        k(   10) = (   0.0909091   0.4723775   0.0000000), wk =   0.0661157
        k(   11) = (   0.0909091   0.5773503   0.0000000), wk =   0.0661157
        k(   12) = (   0.1818182   0.3149183   0.0000000), wk =   0.0330579
        k(   13) = (   0.1818182   0.4198911   0.0000000), wk =   0.0661157
        k(   14) = (   0.1818182   0.5248639   0.0000000), wk =   0.0661157
        k(   15) = (   0.2727273   0.4723775   0.0000000), wk =   0.0330579
        k(   16) = (   0.2727273   0.5773503   0.0000000), wk =   0.0661157
        k(   17) = (  -0.0909091   0.0524864   0.0000000), wk =   0.0330579
        k(   18) = (  -0.1818182   0.1049728   0.0000000), wk =   0.0330579
        k(   19) = (  -0.2727273   0.1574592   0.0000000), wk =   0.0330579
        k(   20) = (  -0.3636364   0.2099456   0.0000000), wk =   0.0330579
        k(   21) = (  -0.4545455   0.2624319   0.0000000), wk =   0.0330579
        k(   22) = (  -0.0909091   0.1574592   0.0000000), wk =   0.0661157
        k(   23) = (  -0.0909091   0.2624319   0.0000000), wk =   0.0661157
        k(   24) = (  -0.1818182   0.2099456   0.0000000), wk =   0.0661157
        k(   25) = (  -0.0909091   0.3674047   0.0000000), wk =   0.0661157
        k(   26) = (  -0.2727273   0.2624319   0.0000000), wk =   0.0661157
        k(   27) = (  -0.0909091   0.4723775   0.0000000), wk =   0.0661157
        k(   28) = (  -0.3636364   0.3149183   0.0000000), wk =   0.0661157
        k(   29) = (  -0.4545455   0.3674047   0.0000000), wk =   0.0330579
        k(   30) = (  -0.1818182   0.3149183   0.0000000), wk =   0.0661157
        k(   31) = (  -0.1818182   0.4198911   0.0000000), wk =   0.0661157
        k(   32) = (  -0.2727273   0.3674047   0.0000000), wk =   0.0661157
        k(   33) = (  -0.1818182   0.5248639   0.0000000), wk =   0.0661157
        k(   34) = (  -0.3636364   0.4198911   0.0000000), wk =   0.0661157
        k(   35) = (  -0.2727273   0.4723775   0.0000000), wk =   0.0661157
        k(   36) = (  -0.3636364   0.5248639   0.0000000), wk =   0.0330579

                       cryst. coord.
        k(    1) = (   0.0000000   0.0000000   0.0000000), wk =   0.0165289
        k(    2) = (   0.0000000   0.0909091   0.0000000), wk =   0.0661157
        k(    3) = (   0.0000000   0.1818182   0.0000000), wk =   0.0661157
        k(    4) = (   0.0000000   0.2727273   0.0000000), wk =   0.0661157
        k(    5) = (   0.0000000   0.3636364   0.0000000), wk =   0.0661157
        k(    6) = (   0.0000000   0.4545455   0.0000000), wk =   0.0661157
        k(    7) = (   0.0909091   0.0909091   0.0000000), wk =   0.0330579
        k(    8) = (   0.0909091   0.1818182   0.0000000), wk =   0.0661157
        k(    9) = (   0.0909091   0.2727273   0.0000000), wk =   0.0661157
        k(   10) = (   0.0909091   0.3636364   0.0000000), wk =   0.0661157
        k(   11) = (   0.0909091   0.4545455   0.0000000), wk =   0.0661157
        k(   12) = (   0.1818182   0.1818182   0.0000000), wk =   0.0330579
        k(   13) = (   0.1818182   0.2727273   0.0000000), wk =   0.0661157
        k(   14) = (   0.1818182   0.3636364   0.0000000), wk =   0.0661157
        k(   15) = (   0.2727273   0.2727273   0.0000000), wk =   0.0330579
        k(   16) = (   0.2727273   0.3636364   0.0000000), wk =   0.0661157
        k(   17) = (  -0.0909091   0.0909091   0.0000000), wk =   0.0330579
        k(   18) = (  -0.1818182   0.1818182   0.0000000), wk =   0.0330579
        k(   19) = (  -0.2727273   0.2727273   0.0000000), wk =   0.0330579
        k(   20) = (  -0.3636364   0.3636364   0.0000000), wk =   0.0330579
        k(   21) = (  -0.4545455   0.4545455   0.0000000), wk =   0.0330579
        k(   22) = (  -0.0909091   0.1818182   0.0000000), wk =   0.0661157
        k(   23) = (  -0.0909091   0.2727273   0.0000000), wk =   0.0661157
        k(   24) = (  -0.1818182   0.2727273   0.0000000), wk =   0.0661157
        k(   25) = (  -0.0909091   0.3636364   0.0000000), wk =   0.0661157
        k(   26) = (  -0.2727273   0.3636364   0.0000000), wk =   0.0661157
        k(   27) = (  -0.0909091   0.4545455   0.0000000), wk =   0.0661157
        k(   28) = (  -0.3636364   0.4545455   0.0000000), wk =   0.0661157
        k(   29) = (  -0.4545455   0.5454545   0.0000000), wk =   0.0330579
        k(   30) = (  -0.1818182   0.3636364   0.0000000), wk =   0.0661157
        k(   31) = (  -0.1818182   0.4545455   0.0000000), wk =   0.0661157
        k(   32) = (  -0.2727273   0.4545455   0.0000000), wk =   0.0661157
        k(   33) = (  -0.1818182   0.5454545   0.0000000), wk =   0.0661157
        k(   34) = (  -0.3636364   0.5454545   0.0000000), wk =   0.0661157
        k(   35) = (  -0.2727273   0.5454545   0.0000000), wk =   0.0661157
        k(   36) = (  -0.3636364   0.6363636   0.0000000), wk =   0.0330579

     Dense  grid:   272959 G-vectors     FFT dimensions: (  60,  60, 192)

     Smooth grid:    96377 G-vectors     FFT dimensions: (  45,  45, 135)

     Dynamical RAM for                 wfc:       2.21 MB

     Dynamical RAM for     wfc (w. buffer):       2.21 MB

     Dynamical RAM for           str. fact:       4.17 MB

     Dynamical RAM for           local pot:       0.00 MB

     Dynamical RAM for          nlocal pot:      13.24 MB

     Dynamical RAM for                qrad:       2.28 MB

     Dynamical RAM for          rho,v,vnew:      28.32 MB

     Dynamical RAM for           G-vectors:      16.35 MB

     Dynamical RAM for          h,s,v(r/c):       0.11 MB

     Dynamical RAM for          <psi|beta>:       0.01 MB

     Dynamical RAM for                 psi:       8.83 MB

     Dynamical RAM for                hpsi:       8.83 MB

     Dynamical RAM for      wfcinit/wfcrot:       5.89 MB

     Estimated static dynamical RAM per process >     101.26 MB

     Estimated max dynamical RAM per process >     119.04 MB

     The potential is recalculated from file :
     ./out/aiida.save/charge-density

     Starting wfcs are   16 randomized atomic wfcs

     Band Structure Calculation
     Davidson diagonalization with overlap

     Computing kpt #:     1
     total cpu time spent up to now is        6.6 secs

     Computing kpt #:     2
     total cpu time spent up to now is       14.1 secs

     Computing kpt #:     3
     total cpu time spent up to now is       20.6 secs

     Computing kpt #:     4
     total cpu time spent up to now is       25.2 secs

     Computing kpt #:     5
     total cpu time spent up to now is       31.1 secs

     Computing kpt #:     6
     total cpu time spent up to now is       35.4 secs

     Computing kpt #:     7
     total cpu time spent up to now is       39.8 secs

     Computing kpt #:     8
     total cpu time spent up to now is       44.5 secs

     Computing kpt #:     9
     total cpu time spent up to now is       50.4 secs

     Computing kpt #:    10
     total cpu time spent up to now is       55.2 secs

     Computing kpt #:    11
     total cpu time spent up to now is       60.4 secs

     Computing kpt #:    12
     total cpu time spent up to now is       65.1 secs

     Computing kpt #:    13
     total cpu time spent up to now is       70.4 secs

     Computing kpt #:    14
     total cpu time spent up to now is       75.2 secs

     Computing kpt #:    15
     total cpu time spent up to now is       81.7 secs

     Computing kpt #:    16
     total cpu time spent up to now is       86.6 secs

     Computing kpt #:    17
     total cpu time spent up to now is       93.7 secs

     Computing kpt #:    18
     total cpu time spent up to now is       99.2 secs

     Computing kpt #:    19
     total cpu time spent up to now is      104.2 secs

     Computing kpt #:    20
     total cpu time spent up to now is      109.3 secs

     Computing kpt #:    21
     total cpu time spent up to now is      114.6 secs

     Computing kpt #:    22
     total cpu time spent up to now is      120.6 secs

     Computing kpt #:    23
     total cpu time spent up to now is      125.8 secs

     Computing kpt #:    24
     total cpu time spent up to now is      130.6 secs

     Computing kpt #:    25
     total cpu time spent up to now is      136.1 secs

     Computing kpt #:    26
     total cpu time spent up to now is      141.3 secs

     Computing kpt #:    27
     total cpu time spent up to now is      146.5 secs

     Computing kpt #:    28
     total cpu time spent up to now is      151.2 secs

     Computing kpt #:    29
     total cpu time spent up to now is      157.5 secs

     Computing kpt #:    30
     total cpu time spent up to now is      161.8 secs

     Computing kpt #:    31
     total cpu time spent up to now is      166.1 secs

     Computing kpt #:    32
     total cpu time spent up to now is      171.4 secs

     Computing kpt #:    33
     total cpu time spent up to now is      177.4 secs

     Computing kpt #:    34
     total cpu time spent up to now is      182.3 secs

     Computing kpt #:    35
     total cpu time spent up to now is      189.0 secs

     Computing kpt #:    36
     total cpu time spent up to now is      193.3 secs

     ethr =  5.00E-12,  avg # of iterations = 37.3

     total cpu time spent up to now is      193.4 secs

     End of band structure calculation

          k = 0.0000 0.0000 0.0000 ( 12011 PWs)   bands (ev):

   -13.7006 -10.5427  -9.0396  -9.0354  -5.8001  -5.5232  -5.5206  -3.4960
    -2.1823  -2.1791  -1.2454   0.8567

     occupation numbers 
     1.0000   1.0000   1.0000   1.0000   1.0000   1.0000   1.0000   0.4797
     0.0000   0.0000   0.0000   0.0000

          k = 0.0000 0.1050 0.0000 ( 12029 PWs)   bands (ev):

   -13.6730 -10.7119  -9.0552  -8.8631  -5.7805  -5.5227  -5.4493  -3.5964
    -2.1963  -2.0953  -1.1790   0.8787

     occupation numbers 
     1.0000   1.0000   1.0000   1.0000   1.0000   1.0000   1.0000   0.7531
     0.0000   0.0000   0.0000   0.0000

          k = 0.0000 0.2099 0.0000 ( 12023 PWs)   bands (ev):

   -13.5925 -11.0719  -9.1032  -8.4913  -5.7665  -5.4736  -5.2436  -3.8230
    -2.2382  -1.9092  -1.0202   0.5120

     occupation numbers 
     1.0000   1.0000   1.0000   1.0000   1.0000   1.0000   1.0000   1.0806
     0.0000   0.0000   0.0000   0.0000

          k = 0.0000 0.3149 0.0000 ( 12037 PWs)   bands (ev):

   -13.4674 -11.4617  -9.1622  -8.1014  -5.8021  -5.3264  -4.9458  -4.0540
    -2.2880  -1.7338  -0.9830  -0.1655

     occupation numbers 
     1.0000   1.0000   1.0000   1.0000   1.0000   1.0000   1.0000   1.0282
     0.0000   0.0000   0.0000   0.0000

          k = 0.0000 0.4199 0.0000 ( 12048 PWs)   bands (ev):

   -13.3191 -11.8026  -9.2130  -7.7887  -5.8426  -5.1743  -4.6261  -4.1765
    -2.3263  -1.7007  -1.2593  -0.7966

     occupation numbers 
     1.0000   1.0000   1.0000   1.0000   1.0000   1.0000   1.0000   1.0071
     0.0000   0.0000   0.0000   0.0000

          k = 0.0000 0.5249 0.0000 ( 12066 PWs)   bands (ev):

   -13.2018 -12.0200  -9.2418  -7.6148  -5.8613  -5.1167  -4.4008  -4.1551
    -2.3418  -1.9211  -1.3363  -1.1883

     occupation numbers 
     1.0000   1.0000   1.0000   1.0000   1.0000   1.0000   1.0002   1.0093
     0.0000   0.0000   0.0000   0.0000

          k = 0.0909 0.1575 0.0000 ( 12032 PWs)   bands (ev):

   -13.6189 -10.9683  -9.0914  -8.5938  -5.7614  -5.5134  -5.2981  -3.7574
    -2.2288  -1.9586  -1.0650   0.5122

     occupation numbers 
     1.0000   1.0000   1.0000   1.0000   1.0000   1.0000   1.0000   1.0464
     0.0000   0.0000   0.0000   0.0000

          k = 0.0909 0.2624 0.0000 ( 12027 PWs)   bands (ev):

   -13.5154 -11.3267  -9.1535  -8.2146  -5.7868  -5.4235  -5.0252  -3.9822
    -2.2852  -1.7760  -0.9612  -0.0972

     occupation numbers 
     1.0000   1.0000   1.0000   1.0000   1.0000   1.0000   1.0000   1.0505
     0.0000   0.0000   0.0000   0.0000

          k = 0.0909 0.3674 0.0000 ( 12046 PWs)   bands (ev):

   -13.3756 -11.6817  -9.2168  -7.8515  -5.8551  -5.2535  -4.7085  -4.1618
    -2.3506  -1.6622  -1.1721  -0.4496

     occupation numbers 
     1.0000   1.0000   1.0000   1.0000   1.0000   1.0000   1.0000   1.0085
     0.0000   0.0000   0.0000   0.0000

          k = 0.0909 0.4724 0.0000 ( 12062 PWs)   bands (ev):

   -13.2337 -11.9622  -9.2624  -7.5879  -5.9165  -5.1152  -4.4564  -4.2002
    -2.4412  -1.7417  -1.3068  -0.9379

     occupation numbers 
     1.0000   1.0000   1.0000   1.0000   1.0000   1.0000   1.0001   1.0051
     0.0000   0.0000   0.0000   0.0000

          k = 0.0909 0.5774 0.0000 ( 12076 PWs)   bands (ev):

   -13.1660 -12.0773  -9.2790  -7.4901  -5.9411  -5.0762  -4.3520  -4.1756
    -2.5124  -1.7673  -1.3215  -1.1884

     occupation numbers 
     1.0000   1.0000   1.0000   1.0000   1.0000   1.0000   1.0004   1.0071
     0.0000   0.0000   0.0000   0.0000

          k = 0.1818 0.3149 0.0000 ( 12068 PWs)   bands (ev):

   -13.3952 -11.6358  -9.2303  -7.8530  -5.8715  -5.3068  -4.7127  -4.1569
    -2.3738  -1.6512  -1.1490  -0.3268

     occupation numbers 
     1.0000   1.0000   1.0000   1.0000   1.0000   1.0000   1.0000   1.0091
     0.0000   0.0000   0.0000   0.0000

          k = 0.1818 0.4199 0.0000 ( 12082 PWs)   bands (ev):

   -13.2523 -11.9251  -9.2999  -7.5023  -6.0088  -5.1236  -4.4635  -4.2512
    -2.5301  -1.6628  -1.2587  -0.4826

     occupation numbers 
     1.0000   1.0000   1.0000   1.0000   1.0000   1.0000   1.0000   1.0024
     0.0000   0.0000   0.0000   0.0000

          k = 0.1818 0.5249 0.0000 ( 12054 PWs)   bands (ev):

   -13.1379 -12.1176  -9.3400  -7.2655  -6.1286  -4.9819  -4.3744  -4.2386
    -2.7058  -1.5308  -1.2240  -0.9630

     occupation numbers 
     1.0000   1.0000   1.0000   1.0000   1.0000   1.0000   1.0003   1.0029
     0.0000   0.0000   0.0000   0.0000

          k = 0.2727 0.4724 0.0000 ( 12074 PWs)   bands (ev):

   -13.1273 -12.1319  -9.3679  -7.1305  -6.2492  -4.9212  -4.4305  -4.2506
    -2.7732  -1.4884  -1.1734  -0.5348

     occupation numbers 
     1.0000   1.0000   1.0000   1.0000   1.0000   1.0000   1.0001   1.0024
     0.0000   0.0000   0.0000   0.0000

          k = 0.2727 0.5774 0.0000 ( 12094 PWs)   bands (ev):

   -13.0677 -12.2200  -9.3938  -6.9051  -6.4282  -4.7850  -4.4780  -4.2599
    -2.8753  -1.1961  -1.0251  -0.9470

     occupation numbers 
     1.0000   1.0000   1.0000   1.0000   1.0000   1.0000   1.0000   1.0021
     0.0001   0.0000   0.0000   0.0000

          k =-0.0909 0.0525 0.0000 ( 12029 PWs)   bands (ev):

   -13.6731 -10.7114  -9.0582  -8.8607  -5.7805  -5.5243  -5.4476  -3.5961
    -2.1986  -2.0934  -1.1790   0.8778

     occupation numbers 
     1.0000   1.0000   1.0000   1.0000   1.0000   1.0000   1.0000   0.7524
     0.0000   0.0000   0.0000   0.0000

          k =-0.1818 0.1050 0.0000 ( 12023 PWs)   bands (ev):

   -13.5927 -11.0706  -9.1061  -8.4900  -5.7663  -5.4747  -5.2423  -3.8222
    -2.2401  -1.9083  -1.0201   0.5107

     occupation numbers 
     1.0000   1.0000   1.0000   1.0000   1.0000   1.0000   1.0000   1.0804
     0.0000   0.0000   0.0000   0.0000

          k =-0.2727 0.1575 0.0000 ( 12037 PWs)   bands (ev):

   -13.4678 -11.4597  -9.1649  -8.1014  -5.8012  -5.3270  -4.9450  -4.0529
    -2.2892  -1.7342  -0.9826  -0.1622

     occupation numbers 
     1.0000   1.0000   1.0000   1.0000   1.0000   1.0000   1.0000   1.0285
     0.0000   0.0000   0.0000   0.0000

          k =-0.3636 0.2099 0.0000 ( 12048 PWs)   bands (ev):

   -13.3200 -11.8000  -9.2155  -7.7902  -5.8401  -5.1750  -4.6262  -4.1749
    -2.3263  -1.7027  -1.2583  -0.7936

     occupation numbers 
     1.0000   1.0000   1.0000   1.0000   1.0000   1.0000   1.0000   1.0072
     0.0000   0.0000   0.0000   0.0000

          k =-0.4545 0.2624 0.0000 ( 12066 PWs)   bands (ev):

   -13.2033 -12.0167  -9.2443  -7.6174  -5.8576  -5.1178  -4.4017  -4.1529
    -2.3406  -1.9233  -1.3359  -1.1858

     occupation numbers 
     1.0000   1.0000   1.0000   1.0000   1.0000   1.0000   1.0002   1.0096
     0.0000   0.0000   0.0000   0.0000

          k =-0.0909 0.1575 0.0000 ( 12032 PWs)   bands (ev):

   -13.6190 -10.9673  -9.0943  -8.5921  -5.7617  -5.5147  -5.2962  -3.7568
    -2.2311  -1.9570  -1.0649   0.5153

     occupation numbers 
     1.0000   1.0000   1.0000   1.0000   1.0000   1.0000   1.0000   1.0458
     0.0000   0.0000   0.0000   0.0000

          k =-0.0909 0.2624 0.0000 ( 12027 PWs)   bands (ev):

   -13.5156 -11.3256  -9.1553  -8.2139  -5.7874  -5.4239  -5.0237  -3.9816
    -2.2868  -1.7750  -0.9609  -0.0936

     occupation numbers 
     1.0000   1.0000   1.0000   1.0000   1.0000   1.0000   1.0000   1.0507
     0.0000   0.0000   0.0000   0.0000

          k =-0.1818 0.2099 0.0000 ( 12027 PWs)   bands (ev):

   -13.5157 -11.3248  -9.1565  -8.2139  -5.7869  -5.4242  -5.0235  -3.9811
    -2.2873  -1.7752  -0.9608  -0.0936

     occupation numbers 
     1.0000   1.0000   1.0000   1.0000   1.0000   1.0000   1.0000   1.0509
     0.0000   0.0000   0.0000   0.0000

          k =-0.0909 0.3674 0.0000 ( 12046 PWs)   bands (ev):

   -13.3759 -11.6808  -9.2179  -7.8512  -5.8559  -5.2535  -4.7075  -4.1614
    -2.3519  -1.6606  -1.1709  -0.4495

     occupation numbers 
     1.0000   1.0000   1.0000   1.0000   1.0000   1.0000   1.0000   1.0086
     0.0000   0.0000   0.0000   0.0000

          k =-0.2727 0.2624 0.0000 ( 12046 PWs)   bands (ev):

   -13.3764 -11.6792  -9.2196  -7.8521  -5.8541  -5.2541  -4.7075  -4.1605
    -2.3520  -1.6621  -1.1707  -0.4473

     occupation numbers 
     1.0000   1.0000   1.0000   1.0000   1.0000   1.0000   1.0000   1.0087
     0.0000   0.0000   0.0000   0.0000

          k =-0.0909 0.4724 0.0000 ( 12062 PWs)   bands (ev):

   -13.2339 -11.9617  -9.2629  -7.5878  -5.9170  -5.1149  -4.4567  -4.1993
    -2.4420  -1.7390  -1.3070  -0.9395

     occupation numbers 
     1.0000   1.0000   1.0000   1.0000   1.0000   1.0000   1.0001   1.0052
     0.0000   0.0000   0.0000   0.0000

          k =-0.3636 0.3149 0.0000 ( 12062 PWs)   bands (ev):

   -13.2350 -11.9592  -9.2649  -7.5900  -5.9139  -5.1160  -4.4567  -4.1981
    -2.4415  -1.7414  -1.3066  -0.9362

     occupation numbers 
     1.0000   1.0000   1.0000   1.0000   1.0000   1.0000   1.0001   1.0053
     0.0000   0.0000   0.0000   0.0000

          k =-0.4545 0.3674 0.0000 ( 12076 PWs)   bands (ev):

   -13.1675 -12.0742  -9.2812  -7.4928  -5.9374  -5.0774  -4.3525  -4.1737
    -2.5120  -1.7684  -1.3208  -1.1865

     occupation numbers 
     1.0000   1.0000   1.0000   1.0000   1.0000   1.0000   1.0004   1.0073
     0.0000   0.0000   0.0000   0.0000

          k =-0.1818 0.3149 0.0000 ( 12068 PWs)   bands (ev):

   -13.3958 -11.6340  -9.2325  -7.8530  -5.8720  -5.3071  -4.7110  -4.1560
    -2.3757  -1.6499  -1.1476  -0.3251

     occupation numbers 
     1.0000   1.0000   1.0000   1.0000   1.0000   1.0000   1.0000   1.0092
     0.0000   0.0000   0.0000   0.0000

          k =-0.1818 0.4199 0.0000 ( 12082 PWs)   bands (ev):

   -13.2528 -11.9238  -9.3012  -7.5025  -6.0092  -5.1236  -4.4630  -4.2500
    -2.5312  -1.6596  -1.2586  -0.4841

     occupation numbers 
     1.0000   1.0000   1.0000   1.0000   1.0000   1.0000   1.0000   1.0025
     0.0000   0.0000   0.0000   0.0000

          k =-0.2727 0.3674 0.0000 ( 12082 PWs)   bands (ev):

   -13.2532 -11.9229  -9.3020  -7.5034  -6.0079  -5.1241  -4.4626  -4.2498
    -2.5311  -1.6605  -1.2585  -0.4819

     occupation numbers 
     1.0000   1.0000   1.0000   1.0000   1.0000   1.0000   1.0000   1.0025
     0.0000   0.0000   0.0000   0.0000

          k =-0.1818 0.5249 0.0000 ( 12054 PWs)   bands (ev):

   -13.1382 -12.1170  -9.3404  -7.2656  -6.1287  -4.9818  -4.3754  -4.2370
    -2.7061  -1.5279  -1.2246  -0.9651

     occupation numbers 
     1.0000   1.0000   1.0000   1.0000   1.0000   1.0000   1.0003   1.0030
     0.0000   0.0000   0.0000   0.0000

          k =-0.3636 0.4199 0.0000 ( 12054 PWs)   bands (ev):

   -13.1392 -12.1151  -9.3417  -7.2678  -6.1259  -4.9830  -4.3738  -4.2371
    -2.7061  -1.5292  -1.2243  -0.9619

     occupation numbers 
     1.0000   1.0000   1.0000   1.0000   1.0000   1.0000   1.0003   1.0030
     0.0000   0.0000   0.0000   0.0000

          k =-0.2727 0.4724 0.0000 ( 12074 PWs)   bands (ev):

   -13.1281 -12.1304  -9.3690  -7.1316  -6.2483  -4.9218  -4.4303  -4.2492
    -2.7735  -1.4854  -1.1737  -0.5367

     occupation numbers 
     1.0000   1.0000   1.0000   1.0000   1.0000   1.0000   1.0001   1.0025
     0.0000   0.0000   0.0000   0.0000

          k =-0.3636 0.5249 0.0000 ( 12094 PWs)   bands (ev):

   -13.0683 -12.2190  -9.3944  -6.9072  -6.4260  -4.7863  -4.4766  -4.2597
    -2.8754  -1.1963  -1.0233  -0.9461

     occupation numbers 
     1.0000   1.0000   1.0000   1.0000   1.0000   1.0000   1.0000   1.0021
     0.0001   0.0000   0.0000   0.0000

     the Fermi energy is    -3.4657 ev

     Writing output data file aiida.save/

     init_run     :      1.17s CPU      1.22s WALL (       1 calls)
     electrons    :    235.30s CPU    192.03s WALL (       1 calls)

     Called by init_run:
     wfcinit      :      0.00s CPU      0.00s WALL (       1 calls)
     wfcinit:atom :      0.17s CPU      0.26s WALL (      36 calls)
     wfcinit:wfcr :      9.47s CPU      8.88s WALL (      36 calls)
     potinit      :      0.33s CPU      0.36s WALL (       1 calls)
     hinit0       :      0.72s CPU      0.73s WALL (       1 calls)

     Called by electrons:
     c_bands      :    235.29s CPU    191.99s WALL (       1 calls)
     v_of_rho     :      0.28s CPU      0.30s WALL (       1 calls)
     v_h          :      0.02s CPU      0.02s WALL (       1 calls)
     v_xc         :      0.25s CPU      0.28s WALL (       1 calls)

     Called by c_bands:
     init_us_2    :      0.41s CPU      0.48s WALL (      36 calls)
     cegterg      :    219.89s CPU    177.78s WALL (      83 calls)

     Called by sum_band:

     Called by *egterg:
     h_psi        :    198.27s CPU    160.01s WALL (    1461 calls)
     g_psi        :      1.74s CPU      1.00s WALL (    1342 calls)
     cdiaghg      :      2.45s CPU      2.39s WALL (    1378 calls)
     cegterg:over :     11.28s CPU     10.44s WALL (    1342 calls)
     cegterg:upda :      8.23s CPU      6.58s WALL (    1342 calls)
     cegterg:last :      4.43s CPU      2.65s WALL (     267 calls)

     Called by h_psi:
     h_psi:pot    :    197.74s CPU    159.65s WALL (    1461 calls)
     h_psi:calbec :     16.24s CPU     15.42s WALL (    1461 calls)
     vloc_psi     :    166.90s CPU    134.38s WALL (    1461 calls)
     add_vuspsi   :     14.58s CPU      9.84s WALL (    1461 calls)

     General routines
     calbec       :     16.23s CPU     15.42s WALL (    1461 calls)
     fft          :      0.18s CPU      0.18s WALL (      12 calls)
     ffts         :      0.01s CPU      0.01s WALL (       1 calls)
     fftw         :    146.25s CPU    117.51s WALL (   19086 calls)
     interpolate  :      0.02s CPU      0.03s WALL (       1 calls)
     davcio       :      0.11s CPU      0.11s WALL (      72 calls)

     Parallel routines

     PWSCF        :   3m56.69s CPU   3m13.59s WALL


   This run was terminated on:  21:27: 8   8Jan2025            

=------------------------------------------------------------------------------=
   JOB DONE.
=------------------------------------------------------------------------------=
