
     Program PWSCF v.6.4.1 starts on  8Jan2025 at 21:27:15 

     This program is part of the open-source Quantum ESPRESSO suite
     for quantum simulation of materials; please cite
         "P. Giannozzi et al., J. Phys.:Condens. Matter 21 395502 (2009);
         "P. Giannozzi et al., J. Phys.:Condens. Matter 29 465901 (2017);
          URL http://www.quantum-espresso.org", 
     in publications or presentations arising from this work. More details at
     http://www.quantum-espresso.org/quote

     Parallel version (MPI), running on     1 processors

     MPI processes distributed on     1 nodes
     Waiting for input...
     Reading input from standard input

     Current dimensions of program PWSCF are:
     Max number of different atomic species (ntypx) = 10
     Max number of k-points (npk) =  40000
     Max angular momentum in pseudopotentials (lmaxx) =  3

     Atomic positions and unit cell read from directory:
     ./out/aiida.save/


     Subspace diagonalization in iterative solution of the eigenvalue problem:
     a serial algorithm will be used

     Message from routine setup:
     DEPRECATED: symmetry with ibrav=0, use correct ibrav instead

     G-vector sticks info
     --------------------
     sticks:   dense  smooth     PW     G-vecs:    dense   smooth      PW
     Sum        2209    1099    313               272959    96377   14675



     bravais-lattice index     =            0
     lattice parameter (alat)  =      11.5203  a.u.
     unit-cell volume          =    4343.9609 (a.u.)^3
     number of atoms/cell      =            4
     number of atomic types    =            1
     number of electrons       =        16.00
     number of Kohn-Sham states=           12
     kinetic-energy cutoff     =      30.0000  Ry
     charge density cutoff     =     240.0000  Ry
     Exchange-correlation      = PBE ( 1  4  3  4 0 0)

     celldm(1)=  11.520285  celldm(2)=   0.000000  celldm(3)=   0.000000
     celldm(4)=   0.000000  celldm(5)=   0.000000  celldm(6)=   0.000000

     crystal axes: (cart. coord. in units of alat)
               a(1) = (   1.000000   0.000000   0.000000 )  
               a(2) = (  -0.500000   0.866025   0.000000 )  
               a(3) = (   0.000000   0.000000   3.280694 )  

     reciprocal axes: (cart. coord. in units 2 pi/alat)
               b(1) = (  1.000000  0.577350 -0.000000 )  
               b(2) = (  0.000000  1.154701  0.000000 )  
               b(3) = (  0.000000 -0.000000  0.304814 )  


     PseudoPot. # 1 for Si read from file:
     ../../pseudo/Si.pbe.upf
     MD5 check sum: 3f156eda2279325da2083dedf8f436a5
     Pseudo is Norm-conserving + core correction, Zval =  4.0
     Generated using ONCVPSP code by D. R. Hamann
     Using radial grid of 1510 points,  6 beta functions with: 
                l(1) =   0
                l(2) =   0
                l(3) =   1
                l(4) =   1
                l(5) =   2
                l(6) =   2

     atomic species   valence    mass     pseudopotential
        Si             4.00    28.08550     Si( 1.00)

      2 Sym. Ops. (no inversion) found


                                    s                        frac. trans.

      isym =  1     identity                                     

 cryst.   s( 1) = (     1          0          0      )
                  (     0          1          0      )
                  (     0          0          1      )

 cart.    s( 1) = (  1.0000000  0.0000000  0.0000000 )
                  (  0.0000000  1.0000000  0.0000000 )
                  (  0.0000000  0.0000000  1.0000000 )


      isym =  2     inv. 180 deg rotation - cryst. axis [1,1,0]  

 cryst.   s( 2) = (     0         -1          0      )
                  (    -1          0          0      )
                  (     0          0          1      )

 cart.    s( 2) = (  0.5000000 -0.8660254  0.0000000 )
                  ( -0.8660254 -0.5000000  0.0000000 )
                  (  0.0000000  0.0000000  1.0000000 )


   Cartesian axes

     site n.     atom                  positions (alat units)
         1           Si  tau(   1) = (   0.2500000   0.4330127   1.6403468  )
         2           Si  tau(   2) = (   0.4420000   0.1004589   1.6403468  )
         3           Si  tau(   3) = (   0.6340000   0.4330127   1.6403468  )
         4           Si  tau(   4) = (  -0.0582500   0.6109809   1.8109428  )

   Crystallographic axes

     site n.     atom                  positions (cryst. coord.)
         1           Si  tau(   1) = (  0.5000000  0.5000000  0.5000000  )
         2           Si  tau(   2) = (  0.5000000  0.1160000  0.5000000  )
         3           Si  tau(   3) = (  0.8840000  0.5000000  0.5000000  )
         4           Si  tau(   4) = (  0.2945000  0.7055000  0.5520000  )

     number of k points=    91  Marzari-Vanderbilt smearing, width (Ry)=  0.0200
                       cart. coord. in units 2pi/alat
        k(    1) = (   0.0000000   0.0000000   0.0000000), wk =   0.0219780
        k(    2) = (   0.0000000   0.0192450   0.0000000), wk =   0.0219780
        k(    3) = (   0.0000000   0.0384900   0.0000000), wk =   0.0219780
        k(    4) = (   0.0000000   0.0577350   0.0000000), wk =   0.0219780
        k(    5) = (   0.0000000   0.0769800   0.0000000), wk =   0.0219780
        k(    6) = (   0.0000000   0.0962250   0.0000000), wk =   0.0219780
        k(    7) = (   0.0000000   0.1154701   0.0000000), wk =   0.0219780
        k(    8) = (   0.0000000   0.1347151   0.0000000), wk =   0.0219780
        k(    9) = (   0.0000000   0.1539601   0.0000000), wk =   0.0219780
        k(   10) = (   0.0000000   0.1732051   0.0000000), wk =   0.0219780
        k(   11) = (   0.0000000   0.1924501   0.0000000), wk =   0.0219780
        k(   12) = (   0.0000000   0.2116951   0.0000000), wk =   0.0219780
        k(   13) = (   0.0000000   0.2309401   0.0000000), wk =   0.0219780
        k(   14) = (   0.0000000   0.2501851   0.0000000), wk =   0.0219780
        k(   15) = (   0.0000000   0.2694301   0.0000000), wk =   0.0219780
        k(   16) = (   0.0000000   0.2886751   0.0000000), wk =   0.0219780
        k(   17) = (   0.0000000   0.3079201   0.0000000), wk =   0.0219780
        k(   18) = (   0.0000000   0.3271652   0.0000000), wk =   0.0219780
        k(   19) = (   0.0000000   0.3464102   0.0000000), wk =   0.0219780
        k(   20) = (   0.0000000   0.3656552   0.0000000), wk =   0.0219780
        k(   21) = (   0.0000000   0.3849002   0.0000000), wk =   0.0219780
        k(   22) = (   0.0000000   0.4041452   0.0000000), wk =   0.0219780
        k(   23) = (   0.0000000   0.4233902   0.0000000), wk =   0.0219780
        k(   24) = (   0.0000000   0.4426352   0.0000000), wk =   0.0219780
        k(   25) = (   0.0000000   0.4618802   0.0000000), wk =   0.0219780
        k(   26) = (   0.0000000   0.4811252   0.0000000), wk =   0.0219780
        k(   27) = (   0.0000000   0.5003702   0.0000000), wk =   0.0219780
        k(   28) = (   0.0000000   0.5196152   0.0000000), wk =   0.0219780
        k(   29) = (   0.0000000   0.5388603   0.0000000), wk =   0.0219780
        k(   30) = (   0.0000000   0.5581053   0.0000000), wk =   0.0219780
        k(   31) = (   0.0000000   0.5773503   0.0000000), wk =   0.0219780
        k(   32) = (   0.0111100   0.5773483   0.0000000), wk =   0.0219780
        k(   33) = (   0.0222200   0.5773464   0.0000000), wk =   0.0219780
        k(   34) = (   0.0333300   0.5773445   0.0000000), wk =   0.0219780
        k(   35) = (   0.0444400   0.5773426   0.0000000), wk =   0.0219780
        k(   36) = (   0.0555500   0.5773406   0.0000000), wk =   0.0219780
        k(   37) = (   0.0666600   0.5773387   0.0000000), wk =   0.0219780
        k(   38) = (   0.0777700   0.5773368   0.0000000), wk =   0.0219780
        k(   39) = (   0.0888800   0.5773349   0.0000000), wk =   0.0219780
        k(   40) = (   0.0999900   0.5773329   0.0000000), wk =   0.0219780
        k(   41) = (   0.1111000   0.5773310   0.0000000), wk =   0.0219780
        k(   42) = (   0.1222100   0.5773291   0.0000000), wk =   0.0219780
        k(   43) = (   0.1333200   0.5773272   0.0000000), wk =   0.0219780
        k(   44) = (   0.1444300   0.5773253   0.0000000), wk =   0.0219780
        k(   45) = (   0.1555400   0.5773233   0.0000000), wk =   0.0219780
        k(   46) = (   0.1666500   0.5773214   0.0000000), wk =   0.0219780
        k(   47) = (   0.1777600   0.5773195   0.0000000), wk =   0.0219780
        k(   48) = (   0.1888700   0.5773176   0.0000000), wk =   0.0219780
        k(   49) = (   0.1999800   0.5773156   0.0000000), wk =   0.0219780
        k(   50) = (   0.2110900   0.5773137   0.0000000), wk =   0.0219780
        k(   51) = (   0.2222000   0.5773118   0.0000000), wk =   0.0219780
        k(   52) = (   0.2333100   0.5773099   0.0000000), wk =   0.0219780
        k(   53) = (   0.2444200   0.5773079   0.0000000), wk =   0.0219780
        k(   54) = (   0.2555300   0.5773060   0.0000000), wk =   0.0219780
        k(   55) = (   0.2666400   0.5773041   0.0000000), wk =   0.0219780
        k(   56) = (   0.2777500   0.5773022   0.0000000), wk =   0.0219780
        k(   57) = (   0.2888600   0.5773002   0.0000000), wk =   0.0219780
        k(   58) = (   0.2999700   0.5772983   0.0000000), wk =   0.0219780
        k(   59) = (   0.3110800   0.5772964   0.0000000), wk =   0.0219780
        k(   60) = (   0.3221900   0.5772945   0.0000000), wk =   0.0219780
        k(   61) = (   0.3333000   0.5772925   0.0000000), wk =   0.0219780
        k(   62) = (   0.3221900   0.5580494   0.0000000), wk =   0.0219780
        k(   63) = (   0.3110800   0.5388064   0.0000000), wk =   0.0219780
        k(   64) = (   0.2999700   0.5195633   0.0000000), wk =   0.0219780
        k(   65) = (   0.2888600   0.5003202   0.0000000), wk =   0.0219780
        k(   66) = (   0.2777500   0.4810771   0.0000000), wk =   0.0219780
        k(   67) = (   0.2666400   0.4618340   0.0000000), wk =   0.0219780
        k(   68) = (   0.2555300   0.4425909   0.0000000), wk =   0.0219780
        k(   69) = (   0.2444200   0.4233479   0.0000000), wk =   0.0219780
        k(   70) = (   0.2333100   0.4041048   0.0000000), wk =   0.0219780
        k(   71) = (   0.2222000   0.3848617   0.0000000), wk =   0.0219780
        k(   72) = (   0.2110900   0.3656186   0.0000000), wk =   0.0219780
        k(   73) = (   0.1999800   0.3463755   0.0000000), wk =   0.0219780
        k(   74) = (   0.1888700   0.3271324   0.0000000), wk =   0.0219780
        k(   75) = (   0.1777600   0.3078894   0.0000000), wk =   0.0219780
        k(   76) = (   0.1666500   0.2886463   0.0000000), wk =   0.0219780
        k(   77) = (   0.1555400   0.2694032   0.0000000), wk =   0.0219780
        k(   78) = (   0.1444300   0.2501601   0.0000000), wk =   0.0219780
        k(   79) = (   0.1333200   0.2309170   0.0000000), wk =   0.0219780
        k(   80) = (   0.1222100   0.2116739   0.0000000), wk =   0.0219780
        k(   81) = (   0.1111000   0.1924308   0.0000000), wk =   0.0219780
        k(   82) = (   0.0999900   0.1731878   0.0000000), wk =   0.0219780
        k(   83) = (   0.0888800   0.1539447   0.0000000), wk =   0.0219780
        k(   84) = (   0.0777700   0.1347016   0.0000000), wk =   0.0219780
        k(   85) = (   0.0666600   0.1154585   0.0000000), wk =   0.0219780
        k(   86) = (   0.0555500   0.0962154   0.0000000), wk =   0.0219780
        k(   87) = (   0.0444400   0.0769723   0.0000000), wk =   0.0219780
        k(   88) = (   0.0333300   0.0577293   0.0000000), wk =   0.0219780
        k(   89) = (   0.0222200   0.0384862   0.0000000), wk =   0.0219780
        k(   90) = (   0.0111100   0.0192431   0.0000000), wk =   0.0219780
        k(   91) = (   0.0000000   0.0000000   0.0000000), wk =   0.0219780

                       cryst. coord.
        k(    1) = (   0.0000000   0.0000000   0.0000000), wk =   0.0219780
        k(    2) = (   0.0000000   0.0166667   0.0000000), wk =   0.0219780
        k(    3) = (   0.0000000   0.0333333   0.0000000), wk =   0.0219780
        k(    4) = (   0.0000000   0.0500000   0.0000000), wk =   0.0219780
        k(    5) = (   0.0000000   0.0666667   0.0000000), wk =   0.0219780
        k(    6) = (   0.0000000   0.0833333   0.0000000), wk =   0.0219780
        k(    7) = (   0.0000000   0.1000000   0.0000000), wk =   0.0219780
        k(    8) = (   0.0000000   0.1166667   0.0000000), wk =   0.0219780
        k(    9) = (   0.0000000   0.1333333   0.0000000), wk =   0.0219780
        k(   10) = (   0.0000000   0.1500000   0.0000000), wk =   0.0219780
        k(   11) = (   0.0000000   0.1666667   0.0000000), wk =   0.0219780
        k(   12) = (   0.0000000   0.1833333   0.0000000), wk =   0.0219780
        k(   13) = (   0.0000000   0.2000000   0.0000000), wk =   0.0219780
        k(   14) = (   0.0000000   0.2166667   0.0000000), wk =   0.0219780
        k(   15) = (   0.0000000   0.2333333   0.0000000), wk =   0.0219780
        k(   16) = (   0.0000000   0.2500000   0.0000000), wk =   0.0219780
        k(   17) = (   0.0000000   0.2666667   0.0000000), wk =   0.0219780
        k(   18) = (   0.0000000   0.2833333   0.0000000), wk =   0.0219780
        k(   19) = (   0.0000000   0.3000000   0.0000000), wk =   0.0219780
        k(   20) = (   0.0000000   0.3166667   0.0000000), wk =   0.0219780
        k(   21) = (   0.0000000   0.3333333   0.0000000), wk =   0.0219780
        k(   22) = (   0.0000000   0.3500000   0.0000000), wk =   0.0219780
        k(   23) = (   0.0000000   0.3666667   0.0000000), wk =   0.0219780
        k(   24) = (   0.0000000   0.3833333   0.0000000), wk =   0.0219780
        k(   25) = (   0.0000000   0.4000000   0.0000000), wk =   0.0219780
        k(   26) = (   0.0000000   0.4166667   0.0000000), wk =   0.0219780
        k(   27) = (   0.0000000   0.4333333   0.0000000), wk =   0.0219780
        k(   28) = (   0.0000000   0.4500000   0.0000000), wk =   0.0219780
        k(   29) = (   0.0000000   0.4666667   0.0000000), wk =   0.0219780
        k(   30) = (   0.0000000   0.4833333   0.0000000), wk =   0.0219780
        k(   31) = (   0.0000000   0.5000000   0.0000000), wk =   0.0219780
        k(   32) = (   0.0111100   0.4944433   0.0000000), wk =   0.0219780
        k(   33) = (   0.0222200   0.4888867   0.0000000), wk =   0.0219780
        k(   34) = (   0.0333300   0.4833300   0.0000000), wk =   0.0219780
        k(   35) = (   0.0444400   0.4777733   0.0000000), wk =   0.0219780
        k(   36) = (   0.0555500   0.4722167   0.0000000), wk =   0.0219780
        k(   37) = (   0.0666600   0.4666600   0.0000000), wk =   0.0219780
        k(   38) = (   0.0777700   0.4611033   0.0000000), wk =   0.0219780
        k(   39) = (   0.0888800   0.4555467   0.0000000), wk =   0.0219780
        k(   40) = (   0.0999900   0.4499900   0.0000000), wk =   0.0219780
        k(   41) = (   0.1111000   0.4444333   0.0000000), wk =   0.0219780
        k(   42) = (   0.1222100   0.4388767   0.0000000), wk =   0.0219780
        k(   43) = (   0.1333200   0.4333200   0.0000000), wk =   0.0219780
        k(   44) = (   0.1444300   0.4277633   0.0000000), wk =   0.0219780
        k(   45) = (   0.1555400   0.4222067   0.0000000), wk =   0.0219780
        k(   46) = (   0.1666500   0.4166500   0.0000000), wk =   0.0219780
        k(   47) = (   0.1777600   0.4110933   0.0000000), wk =   0.0219780
        k(   48) = (   0.1888700   0.4055367   0.0000000), wk =   0.0219780
        k(   49) = (   0.1999800   0.3999800   0.0000000), wk =   0.0219780
        k(   50) = (   0.2110900   0.3944233   0.0000000), wk =   0.0219780
        k(   51) = (   0.2222000   0.3888667   0.0000000), wk =   0.0219780
        k(   52) = (   0.2333100   0.3833100   0.0000000), wk =   0.0219780
        k(   53) = (   0.2444200   0.3777533   0.0000000), wk =   0.0219780
        k(   54) = (   0.2555300   0.3721967   0.0000000), wk =   0.0219780
        k(   55) = (   0.2666400   0.3666400   0.0000000), wk =   0.0219780
        k(   56) = (   0.2777500   0.3610833   0.0000000), wk =   0.0219780
        k(   57) = (   0.2888600   0.3555267   0.0000000), wk =   0.0219780
        k(   58) = (   0.2999700   0.3499700   0.0000000), wk =   0.0219780
        k(   59) = (   0.3110800   0.3444133   0.0000000), wk =   0.0219780
        k(   60) = (   0.3221900   0.3388567   0.0000000), wk =   0.0219780
        k(   61) = (   0.3333000   0.3333000   0.0000000), wk =   0.0219780
        k(   62) = (   0.3221900   0.3221900   0.0000000), wk =   0.0219780
        k(   63) = (   0.3110800   0.3110800   0.0000000), wk =   0.0219780
        k(   64) = (   0.2999700   0.2999700   0.0000000), wk =   0.0219780
        k(   65) = (   0.2888600   0.2888600   0.0000000), wk =   0.0219780
        k(   66) = (   0.2777500   0.2777500   0.0000000), wk =   0.0219780
        k(   67) = (   0.2666400   0.2666400   0.0000000), wk =   0.0219780
        k(   68) = (   0.2555300   0.2555300   0.0000000), wk =   0.0219780
        k(   69) = (   0.2444200   0.2444200   0.0000000), wk =   0.0219780
        k(   70) = (   0.2333100   0.2333100   0.0000000), wk =   0.0219780
        k(   71) = (   0.2222000   0.2222000   0.0000000), wk =   0.0219780
        k(   72) = (   0.2110900   0.2110900   0.0000000), wk =   0.0219780
        k(   73) = (   0.1999800   0.1999800   0.0000000), wk =   0.0219780
        k(   74) = (   0.1888700   0.1888700   0.0000000), wk =   0.0219780
        k(   75) = (   0.1777600   0.1777600   0.0000000), wk =   0.0219780
        k(   76) = (   0.1666500   0.1666500   0.0000000), wk =   0.0219780
        k(   77) = (   0.1555400   0.1555400   0.0000000), wk =   0.0219780
        k(   78) = (   0.1444300   0.1444300   0.0000000), wk =   0.0219780
        k(   79) = (   0.1333200   0.1333200   0.0000000), wk =   0.0219780
        k(   80) = (   0.1222100   0.1222100   0.0000000), wk =   0.0219780
        k(   81) = (   0.1111000   0.1111000   0.0000000), wk =   0.0219780
        k(   82) = (   0.0999900   0.0999900   0.0000000), wk =   0.0219780
        k(   83) = (   0.0888800   0.0888800   0.0000000), wk =   0.0219780
        k(   84) = (   0.0777700   0.0777700   0.0000000), wk =   0.0219780
        k(   85) = (   0.0666600   0.0666600   0.0000000), wk =   0.0219780
        k(   86) = (   0.0555500   0.0555500   0.0000000), wk =   0.0219780
        k(   87) = (   0.0444400   0.0444400   0.0000000), wk =   0.0219780
        k(   88) = (   0.0333300   0.0333300   0.0000000), wk =   0.0219780
        k(   89) = (   0.0222200   0.0222200   0.0000000), wk =   0.0219780
        k(   90) = (   0.0111100   0.0111100   0.0000000), wk =   0.0219780
        k(   91) = (   0.0000000   0.0000000   0.0000000), wk =   0.0219780

     Dense  grid:   272959 G-vectors     FFT dimensions: (  60,  60, 192)

     Smooth grid:    96377 G-vectors     FFT dimensions: (  45,  45, 135)

     Dynamical RAM for                 wfc:       2.21 MB

     Dynamical RAM for     wfc (w. buffer):       2.21 MB

     Dynamical RAM for           str. fact:       4.17 MB

     Dynamical RAM for           local pot:       0.00 MB

     Dynamical RAM for          nlocal pot:      13.24 MB

     Dynamical RAM for                qrad:       2.28 MB

     Dynamical RAM for          rho,v,vnew:      28.32 MB

     Dynamical RAM for           G-vectors:      16.35 MB

     Dynamical RAM for          h,s,v(r/c):       0.11 MB

     Dynamical RAM for          <psi|beta>:       0.01 MB

     Dynamical RAM for                 psi:       8.83 MB

     Dynamical RAM for                hpsi:       8.83 MB

     Dynamical RAM for      wfcinit/wfcrot:       5.89 MB

     Estimated static dynamical RAM per process >     101.26 MB

     Estimated max dynamical RAM per process >     119.04 MB

     The potential is recalculated from file :
     ./out/aiida.save/charge-density

     Starting wfcs are   16 randomized atomic wfcs

     Band Structure Calculation
     Davidson diagonalization with overlap

     Computing kpt #:     1
     total cpu time spent up to now is        7.9 secs

     Computing kpt #:     2
     total cpu time spent up to now is       14.9 secs

     Computing kpt #:     3
     total cpu time spent up to now is       21.0 secs

     Computing kpt #:     4
     total cpu time spent up to now is       28.0 secs

     Computing kpt #:     5
     total cpu time spent up to now is       34.6 secs

     Computing kpt #:     6
     total cpu time spent up to now is       40.4 secs

     Computing kpt #:     7
     total cpu time spent up to now is       47.8 secs

     Computing kpt #:     8
     total cpu time spent up to now is       54.3 secs

     Computing kpt #:     9
     total cpu time spent up to now is       61.2 secs

     Computing kpt #:    10
     total cpu time spent up to now is       67.7 secs

     Computing kpt #:    11
     total cpu time spent up to now is       74.1 secs

     Computing kpt #:    12
     total cpu time spent up to now is       81.0 secs

     Computing kpt #:    13
     c_bands:  1 eigenvalues not converged
     total cpu time spent up to now is       89.2 secs

     Computing kpt #:    14
     total cpu time spent up to now is       95.1 secs

     Computing kpt #:    15
     total cpu time spent up to now is      100.8 secs

     Computing kpt #:    16
     total cpu time spent up to now is      106.9 secs

     Computing kpt #:    17
     total cpu time spent up to now is      111.8 secs

     Computing kpt #:    18
     total cpu time spent up to now is      117.3 secs

     Computing kpt #:    19
     total cpu time spent up to now is      122.7 secs

     Computing kpt #:    20
     total cpu time spent up to now is      128.1 secs

     Computing kpt #:    21
     total cpu time spent up to now is      132.8 secs

     Computing kpt #:    22
     total cpu time spent up to now is      137.8 secs

     Computing kpt #:    23
     total cpu time spent up to now is      142.9 secs

     Computing kpt #:    24
     total cpu time spent up to now is      147.7 secs

     Computing kpt #:    25
     total cpu time spent up to now is      152.7 secs

     Computing kpt #:    26
     total cpu time spent up to now is      157.6 secs

     Computing kpt #:    27
     total cpu time spent up to now is      163.0 secs

     Computing kpt #:    28
     total cpu time spent up to now is      167.4 secs

     Computing kpt #:    29
     total cpu time spent up to now is      172.3 secs

     Computing kpt #:    30
     total cpu time spent up to now is      177.1 secs

     Computing kpt #:    31
     total cpu time spent up to now is      182.1 secs

     Computing kpt #:    32
     total cpu time spent up to now is      186.9 secs

     Computing kpt #:    33
     total cpu time spent up to now is      191.7 secs

     Computing kpt #:    34
     total cpu time spent up to now is      196.7 secs

     Computing kpt #:    35
     total cpu time spent up to now is      201.4 secs

     Computing kpt #:    36
     total cpu time spent up to now is      207.0 secs

     Computing kpt #:    37
     total cpu time spent up to now is      211.8 secs

     Computing kpt #:    38
     total cpu time spent up to now is      216.8 secs

     Computing kpt #:    39
     total cpu time spent up to now is      221.6 secs

     Computing kpt #:    40
     total cpu time spent up to now is      226.2 secs

     Computing kpt #:    41
     total cpu time spent up to now is      231.8 secs

     Computing kpt #:    42
     total cpu time spent up to now is      237.1 secs

     Computing kpt #:    43
     total cpu time spent up to now is      243.4 secs

     Computing kpt #:    44
     total cpu time spent up to now is      248.1 secs

     Computing kpt #:    45
     total cpu time spent up to now is      254.3 secs

     Computing kpt #:    46
     total cpu time spent up to now is      259.0 secs

     Computing kpt #:    47
     total cpu time spent up to now is      264.7 secs

     Computing kpt #:    48
     total cpu time spent up to now is      270.1 secs

     Computing kpt #:    49
     total cpu time spent up to now is      276.0 secs

     Computing kpt #:    50
     total cpu time spent up to now is      281.7 secs

     Computing kpt #:    51
     total cpu time spent up to now is      286.6 secs

     Computing kpt #:    52
     total cpu time spent up to now is      293.0 secs

     Computing kpt #:    53
     total cpu time spent up to now is      297.6 secs

     Computing kpt #:    54
     total cpu time spent up to now is      303.8 secs

     Computing kpt #:    55
     total cpu time spent up to now is      308.5 secs

     Computing kpt #:    56
     total cpu time spent up to now is      314.8 secs

     Computing kpt #:    57
     total cpu time spent up to now is      319.5 secs

     Computing kpt #:    58
     total cpu time spent up to now is      326.2 secs

     Computing kpt #:    59
     total cpu time spent up to now is      331.7 secs

     Computing kpt #:    60
     total cpu time spent up to now is      338.9 secs

     Computing kpt #:    61
     total cpu time spent up to now is      344.7 secs

     Computing kpt #:    62
     total cpu time spent up to now is      351.5 secs

     Computing kpt #:    63
     total cpu time spent up to now is      357.9 secs

     Computing kpt #:    64
     total cpu time spent up to now is      364.7 secs

     Computing kpt #:    65
     total cpu time spent up to now is      370.5 secs

     Computing kpt #:    66
     total cpu time spent up to now is      376.4 secs

     Computing kpt #:    67
     total cpu time spent up to now is      381.4 secs

     Computing kpt #:    68
     total cpu time spent up to now is      387.3 secs

     Computing kpt #:    69
     total cpu time spent up to now is      392.5 secs

     Computing kpt #:    70
     total cpu time spent up to now is      398.2 secs

     Computing kpt #:    71
     total cpu time spent up to now is      402.8 secs

     Computing kpt #:    72
     total cpu time spent up to now is      408.4 secs

     Computing kpt #:    73
     total cpu time spent up to now is      413.7 secs

     Computing kpt #:    74
     total cpu time spent up to now is      418.9 secs

     Computing kpt #:    75
     total cpu time spent up to now is      424.5 secs

     Computing kpt #:    76
     total cpu time spent up to now is      430.0 secs

     Computing kpt #:    77
     total cpu time spent up to now is      434.7 secs

     Computing kpt #:    78
     total cpu time spent up to now is      439.9 secs

     Computing kpt #:    79
     total cpu time spent up to now is      446.0 secs

     Computing kpt #:    80
     total cpu time spent up to now is      450.3 secs

     Computing kpt #:    81
     total cpu time spent up to now is      455.1 secs

     Computing kpt #:    82
     total cpu time spent up to now is      459.7 secs

     Computing kpt #:    83
     total cpu time spent up to now is      466.2 secs

     Computing kpt #:    84
     total cpu time spent up to now is      471.6 secs

     Computing kpt #:    85
     total cpu time spent up to now is      478.3 secs

     Computing kpt #:    86
     total cpu time spent up to now is      484.7 secs

     Computing kpt #:    87
     total cpu time spent up to now is      491.4 secs

     Computing kpt #:    88
     total cpu time spent up to now is      497.8 secs

     Computing kpt #:    89
     total cpu time spent up to now is      503.8 secs

     Computing kpt #:    90
     total cpu time spent up to now is      509.6 secs

     Computing kpt #:    91
     total cpu time spent up to now is      516.1 secs

     ethr =  5.00E-12,  avg # of iterations = 40.9

     total cpu time spent up to now is      516.1 secs

     End of band structure calculation

          k = 0.0000 0.0000 0.0000 ( 12011 PWs)   bands (ev):

   -13.7006 -10.5427  -9.0396  -9.0354  -5.8001  -5.5232  -5.5206  -3.4960
    -2.1823  -2.1791  -1.2454   0.8567

          k = 0.0000 0.0192 0.0000 ( 11995 PWs)   bands (ev):

   -13.6997 -10.5491  -9.0377  -9.0313  -5.7994  -5.5221  -5.5195  -3.4997
    -2.1812  -2.1776  -1.2431   0.8585

          k = 0.0000 0.0385 0.0000 ( 12019 PWs)   bands (ev):

   -13.6969 -10.5680  -9.0392  -9.0122  -5.7971  -5.5222  -5.5125  -3.5106
    -2.1823  -2.1688  -1.2362   0.8633

          k = 0.0000 0.0577 0.0000 ( 12027 PWs)   bands (ev):

   -13.6922 -10.5983  -9.0423  -8.9809  -5.7934  -5.5228  -5.5001  -3.5282
    -2.1851  -2.1536  -1.2248   0.8704

          k = 0.0000 0.0770 0.0000 ( 12013 PWs)   bands (ev):

   -13.6857 -10.6387  -9.0467  -8.9391  -5.7886  -5.5233  -5.4829  -3.5521
    -2.1889  -2.1331  -1.2090   0.8777

          k = 0.0000 0.0962 0.0000 ( 12023 PWs)   bands (ev):

   -13.6774 -10.6874  -9.0523  -8.8885  -5.7831  -5.5231  -5.4609  -3.5814
    -2.1938  -2.1080  -1.1892   0.8808

          k = 0.0000 0.1155 0.0000 ( 12031 PWs)   bands (ev):

   -13.6673 -10.7430  -9.0589  -8.8309  -5.7774  -5.5217  -5.4343  -3.6154
    -2.1996  -2.0792  -1.1657   0.8713

          k = 0.0000 0.1347 0.0000 ( 12041 PWs)   bands (ev):

   -13.6554 -10.8039  -9.0665  -8.7678  -5.7721  -5.5183  -5.4032  -3.6533
    -2.2063  -2.0474  -1.1391   0.8387

          k = 0.0000 0.1540 0.0000 ( 12033 PWs)   bands (ev):

   -13.6417 -10.8689  -9.0749  -8.7004  -5.7680  -5.5122  -5.3680  -3.6941
    -2.2136  -2.0135  -1.1099   0.7794

          k = 0.0000 0.1732 0.0000 ( 12025 PWs)   bands (ev):

   -13.6264 -10.9369  -9.0841  -8.6302  -5.7654  -5.5027  -5.3287  -3.7372
    -2.2216  -1.9782  -1.0791   0.6987

          k = 0.0000 0.1925 0.0000 ( 12019 PWs)   bands (ev):

   -13.6094 -11.0070  -9.0939  -8.5579  -5.7650  -5.4893  -5.2857  -3.7818
    -2.2301  -1.9421  -1.0478   0.6043

          k = 0.0000 0.2117 0.0000 ( 12023 PWs)   bands (ev):

   -13.5908 -11.0785  -9.1042  -8.4846  -5.7668  -5.4719  -5.2393  -3.8271
    -2.2390  -1.9059  -1.0175   0.5027

          k = 0.0000 0.2309 0.0000 ( 12017 PWs)   bands (ev):

   -13.5707 -11.1506  -9.1148  -8.4109  -5.7706  -5.4507  -5.1897  -3.8725
    -2.2482  -1.8702  -0.9905   0.3994

          k = 0.0000 0.2502 0.0000 ( 12009 PWs)   bands (ev):

   -13.5491 -11.2230  -9.1256  -8.3376  -5.7761  -5.4260  -5.1373  -3.9172
    -2.2575  -1.8355  -0.9692   0.2768

          k = 0.0000 0.2694 0.0000 ( 12015 PWs)   bands (ev):

   -13.5262 -11.2950  -9.1366  -8.2653  -5.7830  -5.3985  -5.0825  -3.9607
    -2.2667  -1.8024  -0.9571   0.1440

          k = 0.0000 0.2887 0.0000 ( 12007 PWs)   bands (ev):

   -13.5020 -11.3663  -9.1475  -8.1945  -5.7908  -5.3689  -5.0257  -4.0021
    -2.2759  -1.7714  -0.9574   0.0118

          k = 0.0000 0.3079 0.0000 ( 12021 PWs)   bands (ev):

   -13.4768 -11.4365  -9.1583  -8.1258  -5.7991  -5.3379  -4.9673  -4.0408
    -2.2848  -1.7432  -0.9732  -0.1187

          k = 0.0000 0.3272 0.0000 ( 12029 PWs)   bands (ev):

   -13.4506 -11.5052  -9.1688  -8.0595  -5.8075  -5.3063  -4.9078  -4.0760
    -2.2934  -1.7186  -1.0052  -0.2464

          k = 0.0000 0.3464 0.0000 ( 12047 PWs)   bands (ev):

   -13.4237 -11.5720  -9.1790  -7.9962  -5.8158  -5.2751  -4.8479  -4.1070
    -2.3014  -1.6988  -1.0514  -0.3706

          k = 0.0000 0.3657 0.0000 ( 12054 PWs)   bands (ev):

   -13.3963 -11.6366  -9.1887  -7.9362  -5.8237  -5.2451  -4.7881  -4.1332
    -2.3090  -1.6852  -1.1072  -0.4904

          k = 0.0000 0.3849 0.0000 ( 12048 PWs)   bands (ev):

   -13.3687 -11.6984  -9.1979  -7.8801  -5.8310  -5.2172  -4.7290  -4.1539
    -2.3158  -1.6801  -1.1661  -0.6049

          k = 0.0000 0.4041 0.0000 ( 12046 PWs)   bands (ev):

   -13.3412 -11.7572  -9.2065  -7.8280  -5.8377  -5.1922  -4.6714  -4.1688
    -2.3219  -1.6860  -1.2212  -0.7132

          k = 0.0000 0.4234 0.0000 ( 12046 PWs)   bands (ev):

   -13.3143 -11.8124  -9.2143  -7.7804  -5.8436  -5.1707  -4.6162  -4.1777
    -2.3272  -1.7052  -1.2666  -0.8144

          k = 0.0000 0.4426 0.0000 ( 12028 PWs)   bands (ev):

   -13.2882 -11.8634  -9.2214  -7.7376  -5.8486  -5.1530  -4.5642  -4.1809
    -2.3316  -1.7375  -1.2990  -0.9074

          k = 0.0000 0.4619 0.0000 ( 12038 PWs)   bands (ev):

   -13.2637 -11.9097  -9.2277  -7.6998  -5.8529  -5.1393  -4.5164  -4.1792
    -2.3352  -1.7797  -1.3191  -0.9913

          k = 0.0000 0.4811 0.0000 ( 12052 PWs)   bands (ev):

   -13.2414 -11.9507  -9.2330  -7.6674  -5.8563  -5.1292  -4.4737  -4.1736
    -2.3380  -1.8264  -1.3298  -1.0649

          k = 0.0000 0.5004 0.0000 ( 12040 PWs)   bands (ev):

   -13.2217 -11.9855  -9.2375  -7.6406  -5.8589  -5.1222  -4.4371  -4.1658
    -2.3401  -1.8719  -1.3346  -1.1272

          k = 0.0000 0.5196 0.0000 ( 12058 PWs)   bands (ev):

   -13.2055 -12.0136  -9.2410  -7.6195  -5.8609  -5.1176  -4.4075  -4.1573
    -2.3415  -1.9117  -1.3361  -1.1770

          k = 0.0000 0.5389 0.0000 ( 12062 PWs)   bands (ev):

   -13.1934 -12.0342  -9.2435  -7.6044  -5.8622  -5.1150  -4.3857  -4.1498
    -2.3424  -1.9425  -1.3363  -1.2133

          k = 0.0000 0.5581 0.0000 ( 12066 PWs)   bands (ev):

   -13.1859 -12.0468  -9.2450  -7.5952  -5.8630  -5.1136  -4.3723  -4.1447
    -2.3429  -1.9619  -1.3359  -1.2355

          k = 0.0000 0.5774 0.0000 ( 12064 PWs)   bands (ev):

   -13.1834 -12.0511  -9.2456  -7.5922  -5.8633  -5.1132  -4.3678  -4.1429
    -2.3430  -1.9685  -1.3358  -1.2430

          k = 0.0111 0.5773 0.0000 ( 12060 PWs)   bands (ev):

   -13.1831 -12.0515  -9.2461  -7.5906  -5.8645  -5.1126  -4.3676  -4.1434
    -2.3470  -1.9641  -1.3357  -1.2419

          k = 0.0222 0.5773 0.0000 ( 12044 PWs)   bands (ev):

   -13.1823 -12.0527  -9.2478  -7.5858  -5.8681  -5.1110  -4.3667  -4.1449
    -2.3583  -1.9514  -1.3355  -1.2390

          k = 0.0333 0.5773 0.0000 ( 12046 PWs)   bands (ev):

   -13.1810 -12.0547  -9.2505  -7.5779  -5.8740  -5.1083  -4.3653  -4.1475
    -2.3757  -1.9316  -1.3350  -1.2342

          k = 0.0444 0.5773 0.0000 ( 12038 PWs)   bands (ev):

   -13.1791 -12.0575  -9.2542  -7.5669  -5.8823  -5.1045  -4.3633  -4.1510
    -2.3976  -1.9064  -1.3341  -1.2278

          k = 0.0556 0.5773 0.0000 ( 12050 PWs)   bands (ev):

   -13.1768 -12.0611  -9.2589  -7.5530  -5.8929  -5.0995  -4.3610  -4.1555
    -2.4227  -1.8772  -1.3325  -1.2200

          k = 0.0667 0.5773 0.0000 ( 12056 PWs)   bands (ev):

   -13.1739 -12.0654  -9.2644  -7.5361  -5.9057  -5.0935  -4.3584  -4.1609
    -2.4498  -1.8449  -1.3302  -1.2111

          k = 0.0778 0.5773 0.0000 ( 12052 PWs)   bands (ev):

   -13.1706 -12.0704  -9.2707  -7.5166  -5.9207  -5.0862  -4.3555  -4.1672
    -2.4781  -1.8103  -1.3268  -1.2011

          k = 0.0889 0.5773 0.0000 ( 12074 PWs)   bands (ev):

   -13.1668 -12.0762  -9.2777  -7.4945  -5.9378  -5.0779  -4.3525  -4.1743
    -2.5071  -1.7741  -1.3225  -1.1904

          k = 0.1000 0.5773 0.0000 ( 12060 PWs)   bands (ev):

   -13.1625 -12.0826  -9.2851  -7.4699  -5.9568  -5.0683  -4.3497  -4.1821
    -2.5363  -1.7365  -1.3169  -1.1790

          k = 0.1111 0.5773 0.0000 ( 12038 PWs)   bands (ev):

   -13.1578 -12.0896  -9.2930  -7.4431  -5.9777  -5.0576  -4.3471  -4.1905
    -2.5653  -1.6979  -1.3101  -1.1671

          k = 0.1222 0.5773 0.0000 ( 12044 PWs)   bands (ev):

   -13.1527 -12.0972  -9.3011  -7.4142  -6.0004  -5.0457  -4.3450  -4.1993
    -2.5940  -1.6586  -1.3021  -1.1548

          k = 0.1333 0.5773 0.0000 ( 12054 PWs)   bands (ev):

   -13.1472 -12.1054  -9.3095  -7.3834  -6.0248  -5.0326  -4.3436  -4.2084
    -2.6222  -1.6186  -1.2929  -1.1422

          k = 0.1444 0.5773 0.0000 ( 12050 PWs)   bands (ev):

   -13.1414 -12.1140  -9.3179  -7.3508  -6.0507  -5.0184  -4.3434  -4.2174
    -2.6496  -1.5783  -1.2823  -1.1292

          k = 0.1555 0.5773 0.0000 ( 12050 PWs)   bands (ev):

   -13.1353 -12.1230  -9.3262  -7.3167  -6.0782  -5.0030  -4.3446  -4.2260
    -2.6760  -1.5377  -1.2705  -1.1161

          k = 0.1667 0.5773 0.0000 ( 12050 PWs)   bands (ev):

   -13.1289 -12.1324  -9.3345  -7.2811  -6.1069  -4.9865  -4.3478  -4.2338
    -2.7015  -1.4971  -1.2573  -1.1027

          k = 0.1778 0.5773 0.0000 ( 12054 PWs)   bands (ev):

   -13.1223 -12.1420  -9.3425  -7.2444  -6.1370  -4.9688  -4.3531  -4.2406
    -2.7258  -1.4566  -1.2428  -1.0891

          k = 0.1889 0.5773 0.0000 ( 12046 PWs)   bands (ev):

   -13.1156 -12.1518  -9.3503  -7.2066  -6.1681  -4.9502  -4.3609  -4.2460
    -2.7489  -1.4167  -1.2268  -1.0752

          k = 0.2000 0.5773 0.0000 ( 12048 PWs)   bands (ev):

   -13.1088 -12.1616  -9.3577  -7.1679  -6.2003  -4.9305  -4.3711  -4.2502
    -2.7707  -1.3777  -1.2092  -1.0610

          k = 0.2111 0.5773 0.0000 ( 12068 PWs)   bands (ev):

   -13.1019 -12.1714  -9.3647  -7.1284  -6.2335  -4.9100  -4.3836  -4.2531
    -2.7910  -1.3402  -1.1895  -1.0462

          k = 0.2222 0.5773 0.0000 ( 12080 PWs)   bands (ev):

   -13.0952 -12.1811  -9.3712  -7.0885  -6.2674  -4.8886  -4.3980  -4.2552
    -2.8099  -1.3051  -1.1673  -1.0309

          k = 0.2333 0.5773 0.0000 ( 12094 PWs)   bands (ev):

   -13.0886 -12.1906  -9.3772  -7.0481  -6.3021  -4.8665  -4.4139  -4.2567
    -2.8272  -1.2735  -1.1419  -1.0147

          k = 0.2444 0.5773 0.0000 ( 12094 PWs)   bands (ev):

   -13.0822 -12.1996  -9.3826  -7.0076  -6.3373  -4.8438  -4.4311  -4.2578
    -2.8429  -1.2461  -1.1128  -0.9975

          k = 0.2555 0.5773 0.0000 ( 12092 PWs)   bands (ev):

   -13.0761 -12.2082  -9.3875  -6.9671  -6.3728  -4.8208  -4.4491  -4.2587
    -2.8570  -1.2233  -1.0803  -0.9790

          k = 0.2666 0.5773 0.0000 ( 12092 PWs)   bands (ev):

   -13.0705 -12.2160  -9.3917  -6.9269  -6.4086  -4.7976  -4.4677  -4.2595
    -2.8693  -1.2046  -1.0450  -0.9588

          k = 0.2778 0.5773 0.0000 ( 12102 PWs)   bands (ev):

   -13.0655 -12.2231  -9.3953  -6.8874  -6.4442  -4.7748  -4.4865  -4.2602
    -2.8798  -1.1897  -1.0085  -0.9366

          k = 0.2889 0.5773 0.0000 ( 12098 PWs)   bands (ev):

   -13.0611 -12.2292  -9.3983  -6.8491  -6.4792  -4.7528  -4.5049  -4.2608
    -2.8886  -1.1780  -0.9720  -0.9118

          k = 0.3000 0.5773 0.0000 ( 12084 PWs)   bands (ev):

   -13.0575 -12.2342  -9.4006  -6.8130  -6.5126  -4.7325  -4.5221  -4.2614
    -2.8954  -1.1691  -0.9372  -0.8840

          k = 0.3111 0.5773 0.0000 ( 12076 PWs)   bands (ev):

   -13.0549 -12.2379  -9.4023  -6.7812  -6.5425  -4.7153  -4.5370  -4.2619
    -2.9004  -1.1628  -0.9053  -0.8541

          k = 0.3222 0.5773 0.0000 ( 12076 PWs)   bands (ev):

   -13.0532 -12.2402  -9.4033  -6.7574  -6.5651  -4.7033  -4.5474  -4.2623
    -2.9034  -1.1589  -0.8768  -0.8283

          k = 0.3333 0.5773 0.0000 ( 12072 PWs)   bands (ev):

   -13.0527 -12.2409  -9.4036  -6.7483  -6.5738  -4.6990  -4.5511  -4.2624
    -2.9045  -1.1576  -0.8579  -0.8228

          k = 0.3222 0.5580 0.0000 ( 12074 PWs)   bands (ev):

   -13.0550 -12.2377  -9.4022  -6.7808  -6.5431  -4.7150  -4.5378  -4.2618
    -2.9002  -1.1642  -0.9466  -0.7806

          k = 0.3111 0.5388 0.0000 ( 12098 PWs)   bands (ev):

   -13.0626 -12.2271  -9.3983  -6.8484  -6.4808  -4.7523  -4.5094  -4.2597
    -2.8874  -1.1931  -1.0513  -0.7253

          k = 0.3000 0.5196 0.0000 ( 12086 PWs)   bands (ev):

   -13.0755 -12.2087  -9.3921  -6.9263  -6.4123  -4.7981  -4.4802  -4.2562
    -2.8655  -1.2648  -1.1120  -0.6689

          k = 0.2889 0.5003 0.0000 ( 12088 PWs)   bands (ev):

   -13.0934 -12.1827  -9.3837  -7.0081  -6.3440  -4.8474  -4.4555  -4.2525
    -2.8344  -1.3601  -1.1415  -0.6129

          k = 0.2778 0.4811 0.0000 ( 12074 PWs)   bands (ev):

   -13.1158 -12.1493  -9.3733  -7.0921  -6.2780  -4.8981  -4.4369  -4.2504
    -2.7942  -1.4513  -1.1638  -0.5585

          k = 0.2666 0.4618 0.0000 ( 12058 PWs)   bands (ev):

   -13.1421 -12.1090  -9.3610  -7.1774  -6.2153  -4.9493  -4.4244  -4.2520
    -2.7456  -1.5290  -1.1851  -0.5070

          k = 0.2555 0.4426 0.0000 ( 12064 PWs)   bands (ev):

   -13.1714 -12.0625  -9.3472  -7.2636  -6.1564  -5.0003  -4.4189  -4.2573
    -2.6906  -1.5892  -1.2065  -0.4601

          k = 0.2444 0.4233 0.0000 ( 12048 PWs)   bands (ev):

   -13.2030 -12.0103  -9.3320  -7.3507  -6.1015  -5.0506  -4.4234  -4.2632
    -2.6318  -1.6302  -1.2269  -0.4191

          k = 0.2333 0.4041 0.0000 ( 12064 PWs)   bands (ev):

   -13.2362 -11.9531  -9.3155  -7.4384  -6.0509  -5.1000  -4.4427  -4.2639
    -2.5729  -1.6517  -1.2442  -0.3858

          k = 0.2222 0.3849 0.0000 ( 12072 PWs)   bands (ev):

   -13.2704 -11.8913  -9.2982  -7.5268  -6.0046  -5.1480  -4.4794  -4.2551
    -2.5175  -1.6563  -1.2548  -0.3610

          k = 0.2111 0.3656 0.0000 ( 12070 PWs)   bands (ev):

   -13.3050 -11.8255  -9.2800  -7.6158  -5.9625  -5.1944  -4.5312  -4.2371
    -2.4684  -1.6499  -1.2528  -0.3450

          k = 0.2000 0.3464 0.0000 ( 12062 PWs)   bands (ev):

   -13.3397 -11.7560  -9.2614  -7.7054  -5.9246  -5.2389  -4.5943  -4.2115
    -2.4269  -1.6427  -1.2314  -0.3362

          k = 0.1889 0.3271 0.0000 ( 12056 PWs)   bands (ev):

   -13.3739 -11.6834  -9.2424  -7.7955  -5.8909  -5.2812  -4.6651  -4.1797
    -2.3925  -1.6440  -1.1871  -0.3310

          k = 0.1778 0.3079 0.0000 ( 12056 PWs)   bands (ev):

   -13.4074 -11.6079  -9.2233  -7.8862  -5.8611  -5.3211  -4.7407  -4.1428
    -2.3640  -1.6576  -1.1250  -0.3230

          k = 0.1667 0.2886 0.0000 ( 12026 PWs)   bands (ev):

   -13.4399 -11.5299  -9.2044  -7.9774  -5.8352  -5.3583  -4.8188  -4.1015
    -2.3398  -1.6818  -1.0581  -0.3025

          k = 0.1555 0.2694 0.0000 ( 12028 PWs)   bands (ev):

   -13.4711 -11.4499  -9.1857  -8.0688  -5.8131  -5.3925  -4.8975  -4.0566
    -2.3188  -1.7138  -1.0025  -0.2578

          k = 0.1444 0.2502 0.0000 ( 12032 PWs)   bands (ev):

   -13.5009 -11.3683  -9.1674  -8.1605  -5.7948  -5.4233  -4.9751  -4.0085
    -2.2999  -1.7509  -0.9699  -0.1801

          k = 0.1333 0.2309 0.0000 ( 12044 PWs)   bands (ev):

   -13.5290 -11.2854  -9.1499  -8.2521  -5.7804  -5.4503  -5.0503  -3.9581
    -2.2827  -1.7915  -0.9630  -0.0694

          k = 0.1222 0.2117 0.0000 ( 12022 PWs)   bands (ev):

   -13.5553 -11.2018  -9.1331  -8.3434  -5.7699  -5.4732  -5.1220  -3.9060
    -2.2668  -1.8343  -0.9762   0.0674

          k = 0.1111 0.1924 0.0000 ( 11996 PWs)   bands (ev):

   -13.5798 -11.1182  -9.1173  -8.4337  -5.7634  -5.4915  -5.1893  -3.8531
    -2.2522  -1.8783  -1.0024   0.2206

          k = 0.1000 0.1732 0.0000 ( 12016 PWs)   bands (ev):

   -13.6022 -11.0352  -9.1025  -8.5227  -5.7609  -5.5053  -5.2515  -3.8001
    -2.2388  -1.9226  -1.0357   0.3813

          k = 0.0889 0.1539 0.0000 ( 12036 PWs)   bands (ev):

   -13.6224 -10.9536  -9.0890  -8.6094  -5.7619  -5.5148  -5.3079  -3.7480
    -2.2267  -1.9665  -1.0716   0.5408

          k = 0.0778 0.1347 0.0000 ( 12042 PWs)   bands (ev):

   -13.6405 -10.8746  -9.0769  -8.6929  -5.7657  -5.5205  -5.3582  -3.6978
    -2.2158  -2.0090  -1.1074   0.6880

          k = 0.0667 0.1155 0.0000 ( 12024 PWs)   bands (ev):

   -13.6563 -10.7996  -9.0661  -8.7719  -5.7716  -5.5233  -5.4021  -3.6506
    -2.2062  -2.0492  -1.1411   0.8048

          k = 0.0556 0.0962 0.0000 ( 12034 PWs)   bands (ev):

   -13.6697 -10.7300  -9.0569  -8.8447  -5.7783  -5.5241  -5.4392  -3.6074
    -2.1980  -2.0861  -1.1714   0.8665

          k = 0.0444 0.0770 0.0000 ( 12018 PWs)   bands (ev):

   -13.6808 -10.6681  -9.0492  -8.9094  -5.7852  -5.5237  -5.4696  -3.5697
    -2.1912  -2.1185  -1.1972   0.8794

          k = 0.0333 0.0577 0.0000 ( 12026 PWs)   bands (ev):

   -13.6894 -10.6160  -9.0432  -8.9636  -5.7913  -5.5227  -5.4931  -3.5386
    -2.1860  -2.1454  -1.2180   0.8739

          k = 0.0222 0.0385 0.0000 ( 12016 PWs)   bands (ev):

   -13.6956 -10.5762  -9.0389  -9.0048  -5.7961  -5.5217  -5.5099  -3.5153
    -2.1822  -2.1656  -1.2331   0.8654

          k = 0.0111 0.0192 0.0000 ( 11999 PWs)   bands (ev):

   -13.6993 -10.5512  -9.0363  -9.0307  -5.7991  -5.5209  -5.5199  -3.5009
    -2.1799  -2.1781  -1.2423   0.8590

          k = 0.0000 0.0000 0.0000 ( 12011 PWs)   bands (ev):

   -13.7006 -10.5427  -9.0396  -9.0354  -5.8001  -5.5232  -5.5206  -3.4960
    -2.1823  -2.1791  -1.2454   0.8567

     Writing output data file aiida.save/

     init_run     :      1.47s CPU      1.53s WALL (       1 calls)
     electrons    :    617.07s CPU    514.38s WALL (       1 calls)

     Called by init_run:
     wfcinit      :      0.00s CPU      0.00s WALL (       1 calls)
     wfcinit:atom :      0.60s CPU      0.69s WALL (      91 calls)
     wfcinit:wfcr :     24.38s CPU     24.01s WALL (      91 calls)
     potinit      :      0.43s CPU      0.46s WALL (       1 calls)
     hinit0       :      0.90s CPU      0.91s WALL (       1 calls)

     Called by electrons:
     c_bands      :    617.07s CPU    514.38s WALL (       1 calls)
     v_of_rho     :      0.36s CPU      0.38s WALL (       1 calls)
     v_h          :      0.03s CPU      0.03s WALL (       1 calls)
     v_xc         :      0.33s CPU      0.35s WALL (       1 calls)

     Called by c_bands:
     init_us_2    :      1.20s CPU      1.50s WALL (      91 calls)
     cegterg      :    577.14s CPU    476.25s WALL (     232 calls)

     Called by sum_band:

     Called by *egterg:
     h_psi        :    519.10s CPU    427.00s WALL (    4046 calls)
     g_psi        :      4.48s CPU      2.65s WALL (    3723 calls)
     cdiaghg      :      6.37s CPU      6.18s WALL (    3814 calls)
     cegterg:over :     29.52s CPU     27.85s WALL (    3723 calls)
     cegterg:upda :     23.10s CPU     18.84s WALL (    3723 calls)
     cegterg:last :     11.26s CPU      7.20s WALL (     705 calls)

     Called by h_psi:
     h_psi:pot    :    517.74s CPU    426.07s WALL (    4046 calls)
     h_psi:calbec :     42.98s CPU     41.34s WALL (    4046 calls)
     vloc_psi     :    435.29s CPU    357.87s WALL (    4046 calls)
     add_vuspsi   :     39.40s CPU     26.83s WALL (    4046 calls)

     General routines
     calbec       :     42.95s CPU     41.33s WALL (    4046 calls)
     fft          :      0.24s CPU      0.24s WALL (      12 calls)
     ffts         :      0.01s CPU      0.01s WALL (       1 calls)
     fftw         :    381.17s CPU    312.48s WALL (   49808 calls)
     interpolate  :      0.03s CPU      0.03s WALL (       1 calls)
     davcio       :      0.30s CPU      0.40s WALL (     182 calls)

     Parallel routines

     PWSCF        :  10m19.01s CPU   8m36.78s WALL


   This run was terminated on:  21:35:52   8Jan2025            

=------------------------------------------------------------------------------=
   JOB DONE.
=------------------------------------------------------------------------------=
